Compiler and run-time data
===========================================================================
RASPA 2.0.47
Compiled as a 64-bits application
Compiler: gcc 4.8.5 20150623 (Red Hat 4.8.5-44)
Compile Date = Mar 22 2022, Compile Time = 16:04:55

Thu Jan 23 01:58:29 2025
Simulation started on Thursday, January 23.
The start time was 01:58 AM.

Hostname:    psid00
OS type:     Linux on x86_64
OS release:  3.10.0-1062.el7.x86_64
OS version:  #1 SMP Wed Aug 7 18:08:02 UTC 2019

Simulation
===========================================================================
Dimensions: 3
Random number seed: 1737565108
RASPA directory set to: /home/ys/Research/simulations
String appended to output-files: 
Number of cycles: 10000
Number of initializing cycles: 0
Number of equilibration cycles: 0
Print every: 1000
Rectangular boundary condition applied
Timestep: 0.000500
	Degrees of freedom:                        0
	Translational Degrees of freedom:          0
	Rotational Degrees of freedom:             0
	Degrees of freedom Framework:              0


Mutual consistent basic set of units:
======================================
Unit of temperature: Kelvin
Unit of length:      1e-10 [m]
Unit of time:        1e-12 [s]
Unit of mass:        1.66054e-27 [kg]
Unit of charge:      1.60218e-19 [C/particle]

Derived units and their conversion factors:
===========================================
Unit of energy:              1.66054e-23 [J]
Unit of force:               1.66054e-13 [N]
Unit of pressure:            1.66054e+07 [Pa]
Unit of velocity:            100 [m/s]
Unit of acceleration:        1e-08 [m^2/s]
Unit of diffusion:           1e-08 [m^2/s]
Unit of dipole moment:       1.60218e-29 [C.m]
Unit of electric potential:  0.000103643 [V]
Unit of electric field:      1.03643e+06 [V]
Unit of polarizability:      1.54587e-35 [-]
Unit of Coulomb potential:   167101.0800066561  [K]
Unit of dielectric constant: 0.0000154587       [s^2 C^2/(kg m^3)]
Unit of wave vectors:        5.3088374589       [cm^1]
Boltzmann constant:          0.8314464919       [-]

Internal conversion factors:
===========================================
Energy to Kelvin:                                    1.2027242847
FH correction factor                                 2.0211930949
Heat capacity conversion factor:                    10.0000088723
From Debye to internal units:                        4.8032067991
Isothermal compressibility conversion factor:        0.0000000602

Energy conversion factors:
===========================================
From mdyne/A to kcal/mol/A^2:           143.933
From mdyne/A to kj/mol/A^2:             602.214
From mdyne/A to K/A^2:                  72429.7
From mdyne A/rad^2 to kcal/mol/deg^2:   0.0438444


Properties computed
===========================================================================
Movies: no
Radial Distribution Function: no
Number of molecules GCMC histogram: no
Histogram of the molecule positions: no
Free energy profiles: no
Pore Size Distribution Function: no
End-to-end distance: no
Histogram of the energy of the system: no
Compute thermodynamic factors: no
Framework spacing histograms: no
Residence times histograms: no
Distance histograms: no
Bend Angle histograms: no
Dihedral angle histograms: no
Angle between planes histograms: no
Molecule properties: no
Infra-red spectra: no
Mean-squared displacement using modified order-N algorithm: no
Velocity-autocorrelation function modified order-N algorithm: no
Rotational velocity-autocorrelation function modified order-N algorithm: no
Molecular orientation-autocorrelation function modified order-N algorithm: no
Bond orientation-autocorrelation function modified order-N algorithm: no
Mean-squared displacement (conventional algorithm): no
Velocity-autocorrelation function (conventional algorithm): no
3D density grid for adsorbates: no
Compute cation an/or adsorption sites: no
dcTST snapshots: no
Compute pressure and stress: no


VTK
===========================================================================
VTK fractional-range position framework atoms: [-0.001000,1.001000] [-0.001000,1.001000] [-0.001000,1.001000]
VTK fractional-range position framework bonds: [-0.151000,1.151000] [-0.151000,1.151000] [-0.151000,1.151000]
VTK fractional-range com-position adsorbate molecules: [-0.101000,1.101000] [-0.101000,1.101000] [-0.101000,1.101000]
VTK fractional-range com-position cation molecules: [-0.101000,1.101000] [-0.101000,1.101000] [-0.101000,1.101000]
	3D free energy grid made for the full simulation-cell


Thermo/Baro-stat NHC parameters
===========================================================================
External temperature: 573 [K]
Beta: 0.00209899 [energy unit]
External Pressure: 0 [Pa]


Thermostat chain-length: 3
Timescale parameter for thermostat: 0.150000 [ps]
Barostat chain-length:   3
Timescale parameter for barostat:   0.150000 [ps]

Number of Yoshida-Suzuki decomposition steps: 5
Number of respa steps: 5


Method and settings for electrostatics
===============================================================================
Dielectric constant of the medium : 1.000000
Charge from charge-equilibration: no
Ewald summation is used (exact solution of a periodic system)
Relative precision                : 1e-06
Alpha convergence parameter       : 0.265058
kvec (x,y,z)                      : 11 11 7


CFC-RXMC parameters
===========================================================================
Number of reactions: 0


Rattle parameters
===========================================================================
Distance constraint type: r^2-r^2_0
Bend angle constraint type: theta-theta_0
Dihedral angle constraint type: phi-phi_0
Inversion-bend angle constraint type: chi-chi_0
Out-of-plane distance constraint type: r-r_0


Spectra parameters
===========================================================================
Compute normal modes: no


Minimization parameters
===========================================================================
Generalized coordinates are: Cartesian center-of-mass, elements of the orientational matrix p1,p2,p3 and strain
Potential derivatives are evaluated: analytically
Translation of the system is removed from the generalized Hessian: no
Rotation of the system is removed from the generalized Hessian: no
Maximum step-length: 0.3
Convergence factor: 1
Maximum number of minimization steps: 10000
Use gradients in the line-minimizations: yes
RMS gradient tolerance: 1e-06
Maximum gradient tolerance: 1e-06

Distance constraints: 0
Angle constraints: 0
Dihedral constraints: 0

Improper dihedral constraints: 0

Inversion-bend constraints: 0

Out-of-plane constraints: 0

Harmonic distance constraints: 0
Harmonic angle constraints: 0
Harmonic dihedral constraints: 0

Dihedral mid-point measurements: 0

All framework atoms are fixed

Fixed adsorbate atoms:  
Fixed adsorbate groups (center-of-mass):  
Fixed adsorbate groups (orientation):  

Fixed cation atoms:  
Fixed cation groups (center-of-mass):  
Fixed cation groups (orientation):  


dcTST parameters
===========================================================================
Free energy profiles computed: no
Free energy profiles written every 5000 cycles
Free energy mapping: mapped to a,b,c-coordinates
BarrierPosition:       0.0000000000       0.0000000000       0.0000000000
BarrierNormal:         0.0000000000       0.0000000000       0.0000000000
Start with a molecule on top of the barrier: no
Maximum distance to barrier (e.g. distance to minumum free energy):       0.0000000000 [A]
Maximum trajectory time:      10.0000000000 [ps]
Each configuration is used with 5 different initial velocities


Cbmc parameters
===========================================================================
Biasing method: using only the VDW part
Number of trial positions:                                       10
Number of trial positions (reinsertion):                         10
Number of trial positions (partial reinsertion):                 10
Number of trial positions (identity-change):                     10
Number of trial positions (Gibbs particle transfer):             10
Number of trial positions (insertion/deletion):                  10
Number of trial positions (Widom insertion):                     10
Number of trial positions coupled Torsion-selection:             100
Number of trial positions first bead:                            10
Number of trial positions first bead (reinsertion):              10
Number of trial positions first bead (partial reinsertion):      10
Number of trial positions first bead (identity-change):          10
Number of trial positions first bead (Gibbs particle transfer):  10
Number of trial positions first bead (insertion/deletion):       10
Number of trial positions first bead (Widom insertion):          10
Number of trial moves per open bead:                             150
Target acceptance ratio small-mc scheme:                         0.400000
Energy overlap criteria:                                         1e+07
Minimal Rosenbluth factor:                                       1e-150


Pseudo atoms: 16
===========================================================================
Pseudo Atom[   0] Name UNIT     Oxidation:          Element: H    pdb-name: H    Scat. Types:   1   1 Mass=1.000000000  B-factor:0.000   
                 Charge=1.000000000          Polarization=0.000000000  [A^3] (considered a charged atom and no polarization)  Interactions: yes
                 Anisotropic factor:    0.000 [-] (Absolute), Radius:    1.000 [A], Framework-atom:  no
Pseudo Atom[   1] Name He       Oxidation: +0       Element: He   pdb-name: He   Scat. Types:   3   2 Mass=4.002602000  B-factor:1.000   
                 Charge=0.000000000          Polarization=0.000000000  [A^3] (considered a chargeless atom and no polarization)  Interactions: yes
                 Anisotropic factor:    0.000 [-] (Relative), Radius:    1.000 [A], Framework-atom:  no
Pseudo Atom[   2] Name C_co2    Oxidation: +0       Element: C    pdb-name: C    Scat. Types:   7   6 Mass=12.000000000 B-factor:1.000   
                 Charge=0.651200000          Polarization=0.000000000  [A^3] (considered a charged atom and no polarization)  Interactions: yes
                 Anisotropic factor:    0.000 [-] (Relative), Radius:    0.720 [A], Framework-atom:  no
Pseudo Atom[   3] Name O_co2    Oxidation: +0       Element: O    pdb-name: O    Scat. Types:   9   8 Mass=15.999400000 B-factor:1.000   
                 Charge=-0.325600000         Polarization=0.000000000  [A^3] (considered a charged atom and no polarization)  Interactions: yes
                 Anisotropic factor:    0.000 [-] (Relative), Radius:    0.680 [A], Framework-atom:  no
Pseudo Atom[   4] Name O_o2     Oxidation: +0       Element: O    pdb-name: O    Scat. Types:   9   8 Mass=15.999400000 B-factor:1.000   
                 Charge=-0.112000000         Polarization=0.000000000  [A^3] (considered a charged atom and no polarization)  Interactions: yes
                 Anisotropic factor:    0.000 [-] (Relative), Radius:    0.700 [A], Framework-atom:  no
Pseudo Atom[   5] Name O_com    Oxidation: +0       Element: -    pdb-name: O    Scat. Types:   0   8 Mass=0.000000000  B-factor:1.000   
                 Charge=0.224000000          Polarization=0.000000000  [A^3] (considered a charged atom and no polarization)  Interactions: yes
                 Anisotropic factor:    0.000 [-] (Relative), Radius:    0.700 [A], Framework-atom:  no
Pseudo Atom[   6] Name N_n2     Oxidation: +0       Element: N    pdb-name: N    Scat. Types:   8   7 Mass=14.006740000 B-factor:1.000   
                 Charge=-0.405000000         Polarization=0.000000000  [A^3] (considered a charged atom and no polarization)  Interactions: yes
                 Anisotropic factor:    0.000 [-] (Relative), Radius:    0.700 [A], Framework-atom:  no
Pseudo Atom[   7] Name N_com    Oxidation: +0       Element: -    pdb-name: N    Scat. Types:   0   7 Mass=0.000000000  B-factor:1.000   
                 Charge=0.810000000          Polarization=0.000000000  [A^3] (considered a charged atom and no polarization)  Interactions: yes
                 Anisotropic factor:    0.000 [-] (Relative), Radius:    0.700 [A], Framework-atom:  no
Pseudo Atom[   8] Name Ar       Oxidation: +0       Element: Ar   pdb-name: Ar   Scat. Types:  19  18 Mass=39.948000000 B-factor:1.000   
                 Charge=0.000000000          Polarization=0.000000000  [A^3] (considered a chargeless atom and no polarization)  Interactions: yes
                 Anisotropic factor:    0.000 [-] (Relative), Radius:    0.700 [A], Framework-atom:  no
Pseudo Atom[   9] Name CH4      Oxidation: +0       Element: C    pdb-name: C    Scat. Types:   7   6 Mass=16.042460000 B-factor:1.000   
                 Charge=0.000000000          Polarization=0.000000000  [A^3] (considered a chargeless atom and no polarization)  Interactions: yes
                 Anisotropic factor:    0.000 [-] (Relative), Radius:    1.000 [A], Framework-atom:  no
Pseudo Atom[  10] Name CH3      Oxidation: +0       Element: C    pdb-name: C    Scat. Types:   7   6 Mass=15.034520000 B-factor:1.000   
                 Charge=0.000000000          Polarization=0.000000000  [A^3] (considered a chargeless atom and no polarization)  Interactions: yes
                 Anisotropic factor:    0.000 [-] (Relative), Radius:    1.000 [A], Framework-atom:  no
Pseudo Atom[  11] Name CH2      Oxidation: +0       Element: C    pdb-name: C    Scat. Types:   7   6 Mass=14.026580000 B-factor:1.000   
                 Charge=0.000000000          Polarization=0.000000000  [A^3] (considered a chargeless atom and no polarization)  Interactions: yes
                 Anisotropic factor:    0.000 [-] (Relative), Radius:    1.000 [A], Framework-atom:  no
Pseudo Atom[  12] Name CH       Oxidation: +0       Element: C    pdb-name: C    Scat. Types:   7   6 Mass=13.018640000 B-factor:1.000   
                 Charge=0.000000000          Polarization=0.000000000  [A^3] (considered a chargeless atom and no polarization)  Interactions: yes
                 Anisotropic factor:    0.000 [-] (Relative), Radius:    1.000 [A], Framework-atom:  no
Pseudo Atom[  13] Name C        Oxidation: +0       Element: C    pdb-name: C    Scat. Types:   7   6 Mass=12.000000000 B-factor:1.000   
                 Charge=0.000000000          Polarization=0.000000000  [A^3] (considered a chargeless atom and no polarization)  Interactions: yes
                 Anisotropic factor:    0.000 [-] (Relative), Radius:    1.000 [A], Framework-atom:  no
Pseudo Atom[  14] Name Si       Oxidation: 4+       Element: Si   pdb-name: Si   Scat. Types:  15  14 Mass=28.085498706 B-factor:0.000   
                 Charge=0.000000000  (-na-)  Polarization=5.380000000  [A^3] (considered a chargeless atom and no polarization)  Interactions: yes
                 Anisotropic factor:    0.000 [-] (Absolute), Radius:    1.140 [A], Framework-atom: yes (charge definition not found)
Pseudo Atom[  15] Name O        Oxidation: 2-       Element: O    pdb-name: O    Scat. Types:   9   8 Mass=15.999404927 B-factor:0.000   
                 Charge=0.000000000  (-na-)  Polarization=0.802000000  [A^3] (considered a chargeless atom and no polarization)  Interactions: yes
                 Anisotropic factor:    0.000 [-] (Absolute), Radius:    0.640 [A], Framework-atom: yes (charge definition not found)


Forcefield: ExampleZeolitesForceField
===========================================================================
Minimal distance: 1
CutOff VDW : 12.000000 (144.000000)
CutOff VDW switching on: 10.800000 (116.640000)
CutOff charge-charge : 12.000000 (144.000000)
CutOff charge-charge switching on: 7.800000 (60.840000)
CutOff charge-bonddipole : 12.000000 (144.000000)
CutOff charge-bondipole switching on: 8.400000 (70.560000)
CutOff bonddipole-bonddipole : 12.000000 (144.000000)
CutOff bonddipole-bondipole switching on: 9.000000 (81.000000)
Polarization is neglected
All potentials are shifted to zero at the Cutoff

General mixing rule: Lorentz-Berthelot mixing rules are used FIRST for cross terms
0 cross terms are overwritten using the individual mixing rules from the file 'force_field_mixing_rules.def'
and then 0 terms are overwritten using the specific interactions from the file 'force_field.def'

The force field and all the interactions:
     He -      He [LENNARD_JONES] p_0/k_B:  10.90000 [K], p_1: 2.64000 [A], shift/k_B:  -0.00494280 [K], tailcorrection: no
     He -   C_co2 [LENNARD_JONES] p_0/k_B:  18.06294 [K], p_1: 2.69250 [A], shift/k_B:  -0.00921806 [K], tailcorrection: no
     He -   O_co2 [LENNARD_JONES] p_0/k_B:  30.55837 [K], p_1: 2.82850 [A], shift/k_B:  -0.02095875 [K], tailcorrection: no
     He -    O_o2 [LENNARD_JONES] p_0/k_B:  24.04061 [K], p_1: 2.84250 [A], shift/k_B:  -0.01698416 [K], tailcorrection: no
     He -   O_com [ZERO_POTENTIAL]
     He -    N_n2 [LENNARD_JONES] p_0/k_B:  20.43155 [K], p_1: 2.97300 [A], shift/k_B:  -0.01889482 [K], tailcorrection: no
     He -   N_com [ZERO_POTENTIAL]
     He -      Ar [LENNARD_JONES] p_0/k_B:  36.77449 [K], p_1: 3.01000 [A], shift/k_B:  -0.03662773 [K], tailcorrection: no
     He -     CH4 [LENNARD_JONES] p_0/k_B:  41.56501 [K], p_1: 3.18000 [A], shift/k_B:  -0.05755893 [K], tailcorrection: no
     He -     CH3 [LENNARD_JONES] p_0/k_B:  34.31035 [K], p_1: 3.20000 [A], shift/k_B:  -0.04933343 [K], tailcorrection: no
     He -     CH2 [LENNARD_JONES] p_0/k_B:  24.70627 [K], p_1: 3.30000 [A], shift/k_B:  -0.04272436 [K], tailcorrection: no
     He -      CH [LENNARD_JONES] p_0/k_B:  13.61249 [K], p_1: 3.65500 [A], shift/k_B:  -0.04343978 [K], tailcorrection: no
     He -       C [LENNARD_JONES] p_0/k_B:   2.95296 [K], p_1: 4.51000 [A], shift/k_B:  -0.03319436 [K], tailcorrection: no
     He -      Si [LENNARD_JONES] p_0/k_B:  15.48548 [K], p_1: 2.47000 [A], shift/k_B:  -0.00471027 [K], tailcorrection: no
     He -       O [LENNARD_JONES] p_0/k_B:  24.03539 [K], p_1: 2.97000 [A], shift/k_B:  -0.02209340 [K], tailcorrection: no
  C_co2 -   C_co2 [LENNARD_JONES] p_0/k_B:  29.93300 [K], p_1: 2.74500 [A], shift/k_B:  -0.01715199 [K], tailcorrection: no
  C_co2 -   O_co2 [LENNARD_JONES] p_0/k_B:  50.63981 [K], p_1: 2.88100 [A], shift/k_B:  -0.03878296 [K], tailcorrection: no
  C_co2 -    O_o2 [LENNARD_JONES] p_0/k_B:  39.83889 [K], p_1: 2.89500 [A], shift/k_B:  -0.03141127 [K], tailcorrection: no
  C_co2 -   O_com [ZERO_POTENTIAL]
  C_co2 -    N_n2 [LENNARD_JONES] p_0/k_B:  33.85815 [K], p_1: 3.02550 [A], shift/k_B:  -0.03477820 [K], tailcorrection: no
  C_co2 -   N_com [ZERO_POTENTIAL]
  C_co2 -      Ar [LENNARD_JONES] p_0/k_B:  60.94085 [K], p_1: 3.06250 [A], shift/k_B:  -0.06733139 [K], tailcorrection: no
  C_co2 -     CH4 [LENNARD_JONES] p_0/k_B:  68.87946 [K], p_1: 3.23250 [A], shift/k_B:  -0.10522708 [K], tailcorrection: no
  C_co2 -     CH3 [LENNARD_JONES] p_0/k_B:  56.85740 [K], p_1: 3.25250 [A], shift/k_B:  -0.09013451 [K], tailcorrection: no
  C_co2 -     CH2 [LENNARD_JONES] p_0/k_B:  40.94201 [K], p_1: 3.35250 [A], shift/k_B:  -0.07783014 [K], tailcorrection: no
  C_co2 -      CH [LENNARD_JONES] p_0/k_B:  22.55795 [K], p_1: 3.70750 [A], shift/k_B:  -0.07841175 [K], tailcorrection: no
  C_co2 -       C [LENNARD_JONES] p_0/k_B:   4.89351 [K], p_1: 4.56250 [A], shift/k_B:  -0.05895165 [K], tailcorrection: no
  C_co2 -      Si [LENNARD_JONES] p_0/k_B:  25.66176 [K], p_1: 2.52250 [A], shift/k_B:  -0.00885541 [K], tailcorrection: no
  C_co2 -       O [LENNARD_JONES] p_0/k_B:  39.83025 [K], p_1: 3.02250 [A], shift/k_B:  -0.04066985 [K], tailcorrection: no
  O_co2 -   O_co2 [LENNARD_JONES] p_0/k_B:  85.67100 [K], p_1: 3.01700 [A], shift/k_B:  -0.08652638 [K], tailcorrection: no
  O_co2 -    O_o2 [LENNARD_JONES] p_0/k_B:  67.39832 [K], p_1: 3.03100 [A], shift/k_B:  -0.06998813 [K], tailcorrection: no
  O_co2 -   O_com [ZERO_POTENTIAL]
  O_co2 -    N_n2 [LENNARD_JONES] p_0/k_B:  57.28026 [K], p_1: 3.16150 [A], shift/k_B:  -0.07659340 [K], tailcorrection: no
  O_co2 -   N_com [ZERO_POTENTIAL]
  O_co2 -      Ar [LENNARD_JONES] p_0/k_B: 103.09802 [K], p_1: 3.19850 [A], shift/k_B:  -0.14782408 [K], tailcorrection: no
  O_co2 -     CH4 [LENNARD_JONES] p_0/k_B: 116.52834 [K], p_1: 3.36850 [A], shift/k_B:  -0.22793491 [K], tailcorrection: no
  O_co2 -     CH3 [LENNARD_JONES] p_0/k_B:  96.18975 [K], p_1: 3.38850 [A], shift/k_B:  -0.19495125 [K], tailcorrection: no
  O_co2 -     CH2 [LENNARD_JONES] p_0/k_B:  69.26454 [K], p_1: 3.48850 [A], shift/k_B:  -0.16712968 [K], tailcorrection: no
  O_co2 -      CH [LENNARD_JONES] p_0/k_B:  38.16290 [K], p_1: 3.84350 [A], shift/k_B:  -0.16462890 [K], tailcorrection: no
  O_co2 -       C [LENNARD_JONES] p_0/k_B:   8.27870 [K], p_1: 4.69850 [A], shift/k_B:  -0.11888367 [K], tailcorrection: no
  O_co2 -      Si [LENNARD_JONES] p_0/k_B:  43.41385 [K], p_1: 2.65850 [A], shift/k_B:  -0.02052908 [K], tailcorrection: no
  O_co2 -       O [LENNARD_JONES] p_0/k_B:  67.38370 [K], p_1: 3.15850 [A], shift/k_B:  -0.08959179 [K], tailcorrection: no
   O_o2 -    O_o2 [LENNARD_JONES] p_0/k_B:  53.02300 [K], p_1: 3.04500 [A], shift/k_B:  -0.05660368 [K], tailcorrection: no
   O_o2 -   O_com [ZERO_POTENTIAL]
   O_o2 -    N_n2 [LENNARD_JONES] p_0/k_B:  45.06301 [K], p_1: 3.17550 [A], shift/k_B:  -0.06187515 [K], tailcorrection: no
   O_o2 -   N_com [ZERO_POTENTIAL]
   O_o2 -      Ar [LENNARD_JONES] p_0/k_B:  81.10834 [K], p_1: 3.21250 [A], shift/k_B:  -0.11938149 [K], tailcorrection: no
   O_o2 -     CH4 [LENNARD_JONES] p_0/k_B:  91.67413 [K], p_1: 3.38250 [A], shift/k_B:  -0.18383502 [K], tailcorrection: no
   O_o2 -     CH3 [LENNARD_JONES] p_0/k_B:  75.67354 [K], p_1: 3.40250 [A], shift/k_B:  -0.15720980 [K], tailcorrection: no
   O_o2 -     CH2 [LENNARD_JONES] p_0/k_B:  54.49117 [K], p_1: 3.50250 [A], shift/k_B:  -0.13467871 [K], tailcorrection: no
   O_o2 -      CH [LENNARD_JONES] p_0/k_B:  30.02317 [K], p_1: 3.85750 [A], shift/k_B:  -0.13236868 [K], tailcorrection: no
   O_o2 -       C [LENNARD_JONES] p_0/k_B:   6.51294 [K], p_1: 4.71250 [A], shift/k_B:  -0.09520548 [K], tailcorrection: no
   O_o2 -      Si [LENNARD_JONES] p_0/k_B:  34.15415 [K], p_1: 2.67250 [A], shift/k_B:  -0.01666746 [K], tailcorrection: no
   O_o2 -       O [LENNARD_JONES] p_0/k_B:  53.01150 [K], p_1: 3.17250 [A], shift/k_B:  -0.07237758 [K], tailcorrection: no
  O_com -   O_com [ZERO_POTENTIAL]
  O_com -    N_n2 [ZERO_POTENTIAL]
  O_com -   N_com [ZERO_POTENTIAL]
  O_com -      Ar [ZERO_POTENTIAL]
  O_com -     CH4 [ZERO_POTENTIAL]
  O_com -     CH3 [ZERO_POTENTIAL]
  O_com -     CH2 [ZERO_POTENTIAL]
  O_com -      CH [ZERO_POTENTIAL]
  O_com -       C [ZERO_POTENTIAL]
  O_com -      Si [ZERO_POTENTIAL]
  O_com -       O [ZERO_POTENTIAL]
   N_n2 -    N_n2 [LENNARD_JONES] p_0/k_B:  38.29800 [K], p_1: 3.30600 [A], shift/k_B:  -0.06695388 [K], tailcorrection: no
   N_n2 -   N_com [ZERO_POTENTIAL]
   N_n2 -      Ar [LENNARD_JONES] p_0/k_B:  68.93209 [K], p_1: 3.34300 [A], shift/k_B:  -0.12882767 [K], tailcorrection: no
   N_n2 -     CH4 [LENNARD_JONES] p_0/k_B:  77.91170 [K], p_1: 3.51300 [A], shift/k_B:  -0.19605171 [K], tailcorrection: no
   N_n2 -     CH3 [LENNARD_JONES] p_0/k_B:  64.31317 [K], p_1: 3.53300 [A], shift/k_B:  -0.16743696 [K], tailcorrection: no
   N_n2 -     CH2 [LENNARD_JONES] p_0/k_B:  46.31078 [K], p_1: 3.63300 [A], shift/k_B:  -0.14253201 [K], tailcorrection: no
   N_n2 -      CH [LENNARD_JONES] p_0/k_B:  25.51599 [K], p_1: 3.98800 [A], shift/k_B:  -0.13731894 [K], tailcorrection: no
   N_n2 -       C [LENNARD_JONES] p_0/k_B:   5.53520 [K], p_1: 4.84300 [A], shift/k_B:  -0.09526024 [K], tailcorrection: no
   N_n2 -      Si [LENNARD_JONES] p_0/k_B:  29.02682 [K], p_1: 2.80300 [A], shift/k_B:  -0.01885558 [K], tailcorrection: no
   N_n2 -       O [LENNARD_JONES] p_0/k_B:  45.05324 [K], p_1: 3.30300 [A], shift/k_B:  -0.07833594 [K], tailcorrection: no
  N_com -   N_com [ZERO_POTENTIAL]
  N_com -      Ar [ZERO_POTENTIAL]
  N_com -     CH4 [ZERO_POTENTIAL]
  N_com -     CH3 [ZERO_POTENTIAL]
  N_com -     CH2 [ZERO_POTENTIAL]
  N_com -      CH [ZERO_POTENTIAL]
  N_com -       C [ZERO_POTENTIAL]
  N_com -      Si [ZERO_POTENTIAL]
  N_com -       O [ZERO_POTENTIAL]
     Ar -      Ar [LENNARD_JONES] p_0/k_B: 124.07000 [K], p_1: 3.38000 [A], shift/k_B:  -0.24769804 [K], tailcorrection: no
     Ar -     CH4 [LENNARD_JONES] p_0/k_B: 140.23229 [K], p_1: 3.55000 [A], shift/k_B:  -0.37575039 [K], tailcorrection: no
     Ar -     CH3 [LENNARD_JONES] p_0/k_B: 115.75647 [K], p_1: 3.57000 [A], shift/k_B:  -0.32079374 [K], tailcorrection: no
     Ar -     CH2 [LENNARD_JONES] p_0/k_B:  83.35418 [K], p_1: 3.67000 [A], shift/k_B:  -0.27260937 [K], tailcorrection: no
     Ar -      CH [LENNARD_JONES] p_0/k_B:  45.92592 [K], p_1: 4.02500 [A], shift/k_B:  -0.26122023 [K], tailcorrection: no
     Ar -       C [LENNARD_JONES] p_0/k_B:   9.96273 [K], p_1: 4.88000 [A], shift/k_B:  -0.17943247 [K], tailcorrection: no
     Ar -      Si [LENNARD_JONES] p_0/k_B:  52.24500 [K], p_1: 2.84000 [A], shift/k_B:  -0.03671563 [K], tailcorrection: no
     Ar -       O [LENNARD_JONES] p_0/k_B:  81.09075 [K], p_1: 3.34000 [A], shift/k_B:  -0.15073728 [K], tailcorrection: no
    CH4 -     CH4 [LENNARD_JONES] p_0/k_B: 158.50000 [K], p_1: 3.72000 [A], shift/k_B:  -0.56217796 [K], tailcorrection: no
    CH4 -     CH3 [LENNARD_JONES] p_0/k_B: 130.83577 [K], p_1: 3.74000 [A], shift/k_B:  -0.47921501 [K], tailcorrection: no
    CH4 -     CH2 [LENNARD_JONES] p_0/k_B:  94.21253 [K], p_1: 3.84000 [A], shift/k_B:  -0.40420524 [K], tailcorrection: no
    CH4 -      CH [LENNARD_JONES] p_0/k_B:  51.90857 [K], p_1: 4.19500 [A], shift/k_B:  -0.37827707 [K], tailcorrection: no
    CH4 -       C [LENNARD_JONES] p_0/k_B:  11.26055 [K], p_1: 5.05000 [A], shift/k_B:  -0.24880626 [K], tailcorrection: no
    CH4 -      Si [LENNARD_JONES] p_0/k_B:  59.05083 [K], p_1: 3.01000 [A], shift/k_B:  -0.05881516 [K], tailcorrection: no
    CH4 -       O [LENNARD_JONES] p_0/k_B:  91.65424 [K], p_1: 3.51000 [A], shift/k_B:  -0.22945404 [K], tailcorrection: no
    CH3 -     CH3 [LENNARD_JONES] p_0/k_B: 108.00000 [K], p_1: 3.76000 [A], shift/k_B:  -0.40842485 [K], tailcorrection: no
    CH3 -     CH2 [LENNARD_JONES] p_0/k_B:  77.76889 [K], p_1: 3.86000 [A], shift/k_B:  -0.34420794 [K], tailcorrection: no
    CH3 -      CH [LENNARD_JONES] p_0/k_B:  42.84857 [K], p_1: 4.21500 [A], shift/k_B:  -0.32127575 [K], tailcorrection: no
    CH3 -       C [LENNARD_JONES] p_0/k_B:   9.29516 [K], p_1: 5.07000 [A], shift/k_B:  -0.21028090 [K], tailcorrection: no
    CH3 -      Si [LENNARD_JONES] p_0/k_B:  48.74423 [K], p_1: 3.03000 [A], shift/k_B:  -0.05051716 [K], tailcorrection: no
    CH3 -       O [LENNARD_JONES] p_0/k_B:  75.65712 [K], p_1: 3.53000 [A], shift/k_B:  -0.19596976 [K], tailcorrection: no
    CH2 -     CH2 [LENNARD_JONES] p_0/k_B:  56.00000 [K], p_1: 3.96000 [A], shift/k_B:  -0.28891522 [K], tailcorrection: no
    CH2 -      CH [LENNARD_JONES] p_0/k_B:  30.85450 [K], p_1: 4.31500 [A], shift/k_B:  -0.26621710 [K], tailcorrection: no
    CH2 -       C [LENNARD_JONES] p_0/k_B:   6.69328 [K], p_1: 5.17000 [A], shift/k_B:  -0.17012512 [K], tailcorrection: no
    CH2 -      Si [LENNARD_JONES] p_0/k_B:  35.09986 [K], p_1: 3.13000 [A], shift/k_B:  -0.04419846 [K], tailcorrection: no
    CH2 -       O [LENNARD_JONES] p_0/k_B:  54.47935 [K], p_1: 3.63000 [A], shift/k_B:  -0.16684428 [K], tailcorrection: no
     CH -      CH [LENNARD_JONES] p_0/k_B:  17.00000 [K], p_1: 4.67000 [A], shift/k_B:  -0.23540268 [K], tailcorrection: no
     CH -       C [LENNARD_JONES] p_0/k_B:   3.68782 [K], p_1: 5.52500 [A], shift/k_B:  -0.13918063 [K], tailcorrection: no
     CH -      Si [LENNARD_JONES] p_0/k_B:  19.33908 [K], p_1: 3.48500 [A], shift/k_B:  -0.04638359 [K], tailcorrection: no
     CH -       O [LENNARD_JONES] p_0/k_B:  30.01666 [K], p_1: 3.98500 [A], shift/k_B:  -0.16081332 [K], tailcorrection: no
      C -       C [LENNARD_JONES] p_0/k_B:   0.80000 [K], p_1: 6.38000 [A], shift/k_B:  -0.07064236 [K], tailcorrection: no
      C -      Si [LENNARD_JONES] p_0/k_B:   4.19524 [K], p_1: 4.34000 [A], shift/k_B:  -0.03747091 [K], tailcorrection: no
      C -       O [LENNARD_JONES] p_0/k_B:   6.51153 [K], p_1: 4.84000 [A], shift/k_B:  -0.11164876 [K], tailcorrection: no
     Si -      Si [LENNARD_JONES] p_0/k_B:  22.00000 [K], p_1: 2.30000 [A], shift/k_B:  -0.00436255 [K], tailcorrection: no
     Si -       O [LENNARD_JONES] p_0/k_B:  34.14674 [K], p_1: 2.80000 [A], shift/k_B:  -0.02203941 [K], tailcorrection: no
      O -       O [LENNARD_JONES] p_0/k_B:  53.00000 [K], p_1: 3.30000 [A], shift/k_B:  -0.09165246 [K], tailcorrection: no


MoleculeDefinitions:
===========================================================================
Component 0 [pentane] (Adsorbate molecule)

	MoleculeDefinitions: ExampleDefinitions
	Component contains no atoms with charge
	Component contains no atoms with point dipoles (polarization)
	Component has a net charge of 0.000000

	Ideal chain Rosenbluth weight: 0.0639633
	Ideal chain total energy: 0.000000

	Critical temparure [K]: 469.700000
	Critical pressure [Pa]: 3370000.000000
	Acentric factor [-]: 0.251000

	RXMC partition factor ln(q/V) [ln(A^(-3))]:       0.0000000000

	Vapour=stable, Liquid=metastable

	MolFraction:           1.0000000000 [-]
	Compressibility:       0.0000000000 [-]

	Density of the bulk fluid phase:       0.0000000000 [kg/m^3]


	Amount of excess molecules:       0.0000000000 [-]

	Conversion factor molecules/unit cell -> mol/kg:       0.1733675050 [-]
	Conversion factor molecules/unit cell -> mg/g:      12.5082539796 [-]
	Conversion factor molecules/unit cell -> cm^3 STP/gr:       3.8858550532 [-]
	Conversion factor molecules/unit cell -> cm^3 STP/cm^3:       6.9803262157 [-]
	Conversion factor mol/kg -> cm^3 STP/gr:      22.4139757476 [-]
	Conversion factor mol/kg -> cm^3 STP/cm^3:      40.2631751230 [-]

	Partial pressure: -16605402.00000000000000 [Pa]
	                    -124540.51499999999942 [Torr]
	                       -166.05402000000001 [bar]
	                       -163.88257586972614 [atm]

	Fugacity coefficient:      -1.0000000000 [-]

	Partial fugacity:  16605402.00000000000000 [Pa]
	                     124540.51499999999942 [Torr]
	                        166.05402000000001 [bar]
	                        163.88257586972614 [atm]

	Molecule contains 5 number of atoms
		atom:    0  is of type:   10 [       CH3] (group: 0)
		atom:    1  is of type:   11 [       CH2] (group: 0)
		atom:    2  is of type:   11 [       CH2] (group: 0)
		atom:    3  is of type:   11 [       CH2] (group: 0)
		atom:    4  is of type:   10 [       CH3] (group: 0)

	Molecule contains 0 chirality centers

	Molecule contains 1 number of groups

		group: 0 containing: 5 elements
		-------------------------------------------------
		the group is modelled as flexible, i.e. no constraints
		Mass: 72.148780 [a.u.]
		Mass: 2.808639 [kg/m^3]

		Rotational Degrees of freedom: 0
		Diagonalized inertia vector:       0.0000000000
		                                   0.0000000000
		                                   0.0000000000
		element: 0 atom: 0 [       CH3] Charge:  0.000000 Anisotropy: 0.000000 Connectivity: 1 (1 )
		element: 1 atom: 1 [       CH2] Charge:  0.000000 Anisotropy: 0.000000 Connectivity: 2 (0 2 )
		element: 2 atom: 2 [       CH2] Charge:  0.000000 Anisotropy: 0.000000 Connectivity: 2 (1 3 )
		element: 3 atom: 3 [       CH2] Charge:  0.000000 Anisotropy: 0.000000 Connectivity: 2 (2 4 )
		element: 4 atom: 4 [       CH3] Charge:  0.000000 Anisotropy: 0.000000 Connectivity: 1 (3 )

		Dipole:           0.0000000000 [D]
		Quadrupole:       0.0000000000       0.0000000000       0.0000000000 [D Angstrom]
		Quadrupole tensor [D Angstrom]
				       0.0000000000       0.0000000000       0.0000000000
				       0.0000000000       0.0000000000       0.0000000000
				       0.0000000000       0.0000000000       0.0000000000

	Starting bead for growth               : 0

	Degrees of freedom                     : 0
	Translational degrees of freedom       : 0
	Rotational degrees of freedom          : 0
	Vibrational degrees of freedom         : 0
	Constraint degrees of freedom          : 0

	Number of atoms                        : 5

	Number of constraint bonds             : 0
	Number of constraint bends             : 0
	Number of constraint inversion bends   : 0
	Number of constraint torsions          : 0
	Number of constraint improper torsions : 0
	Number of constraint improper torsions : 0

	Number of bonds                        : 4
	Number of Urey-Bradleys                : 0
	Number of bends                        : 3
	Number of inversion bends              : 0
	Number of torsions                     : 2
	Number of improper torsions            : 0
	Number of improper torsions            : 0

	Number of bond/bond cross terms        : 0
	Number of bond/bend cross terms        : 0
	Number of bend/bend cross terms        : 0
	Number of stretch/torsion cross terms  : 0
	Number of bend/torsion cross terms     : 0

	Number of charges                      : 0
	Number of bond-dipoles                 : 0

	Number of intra Van der Waals                             : 1
	Number of intra charge-charge Coulomb                     : 0
	Number of intra charge-bonddipole Coulomb                 : 0
	Number of intra bonddipole-bonddipole Coulomb             : 0

	Number of excluded intra charge-charge Coulomb                     : 0
	Number of excluded intra charge-bonddipole Coulomb                 : 0
	Number of excluded intra bonddipole-bonddipole Coulomb             : 0

	Number of cbmc-config moves                               : 6

	Particle Moves:             
		ProbabilityTranslationMove:                  0.000000
			TranslationDirection:      XYZ
		Percentage of random translation moves:            0.000000
		Percentage of rotation moves:                      0.000000
		Percentage of random rotation moves:               0.000000
		Percentage of partial reinsertion moves:           0.000000
		Percentage of reinsertion moves:                   0.000000
		Percentage of reinsertion-in-place moves:          0.000000
		Percentage of reinsertion-in-plane moves:          0.000000
		Percentage of identity-change moves:               0.000000
		Percentage of swap (insert/delete) moves:          0.000000
		Percentage of CF swap lambda moves:                0.000000
		Percentage of CB/CFMC swap lambda moves:           0.000000
		Percentage of Widom insertion moves:               100.000000
		Percentage of CF-Widom insertion moves:            0.000000
		Percentage of Gibbs Widom insertion moves:         0.000000
		Percentage of surface-area moves:                  0.000000
		Percentage of Gibbs particle-transfer moves:       0.000000
		Percentage of Gibbs identity-change moves:         0.000000
		Percentage of CF Gibbs lambda-transfer moves:      0.000000
		Percentage of CB/CFMC Gibbs lambda-transfer moves: 0.000000
		Percentage of exchange frac./int. particle moves:  0.000000
		Percentage of fractional mol. to other box moves:  0.000000
		Percentage of lambda-change moves:                 0.000000
		Percentage of fractional to integer moves:         0.000000

	System Moves:
		Percentage of parallel-tempering moves:            0.000000
		Percentage of hyper-parallel-tempering moves:      0.000000
		Percentage of parallel-mol-fraction moves:         0.000000
			   Component A: 0 B: 1
		Percentage of chiral inversion moves:              0.000000
		Percentage of Hybrid-NVE moves:                    0.000000
		Percentage of Hybrid-NPH moves:                    0.000000
		Percentage of Hybrid-NPHPR moves:                  0.000000
		Percentage of volume-change moves:                 0.000000
		Percentage of box-shape-change moves:              0.000000
		Percentage of Gibbs volume-change moves:           0.000000
		Percentage of framework-change moves:              0.000000
		Percentage of framework-shift moves:               0.000000
		Percentage of reactive MC moves:                   0.000000

	Moves are restricted: No
	No biased sampling used for this component

	Number of Bonds: 4
	--------------------------------------------
	Bond interaction 0: A=0 B=1 Type:HARMONIC_BOND
		HARMONIC_BOND: p_0/k_B=96500.000000 [K/A^2], p_1=1.540000   [A]
	Bond interaction 1: A=1 B=2 Type:HARMONIC_BOND
		HARMONIC_BOND: p_0/k_B=96500.000000 [K/A^2], p_1=1.540000   [A]
	Bond interaction 2: A=2 B=3 Type:HARMONIC_BOND
		HARMONIC_BOND: p_0/k_B=96500.000000 [K/A^2], p_1=1.540000   [A]
	Bond interaction 3: A=3 B=4 Type:HARMONIC_BOND
		HARMONIC_BOND: p_0/k_B=96500.000000 [K/A^2], p_1=1.540000   [A]

	Number of Bends: 3
	--------------------------------------------
	Bend interaction 0: A=0 B=1 C=2 Type:HARMONIC_BEND
		HARMONIC_BEND: p_0/k_B=62500.000000 [K/rad^2], p_1=114.000000 [degrees]
	Bend interaction 1: A=1 B=2 C=3 Type:HARMONIC_BEND
		HARMONIC_BEND: p_0/k_B=62500.000000 [K/rad^2], p_1=114.000000 [degrees]
	Bend interaction 2: A=2 B=3 C=4 Type:HARMONIC_BEND
		HARMONIC_BEND: p_0/k_B=62500.000000 [K/rad^2], p_1=114.000000 [degrees]

	Number of Torsions: 2
	--------------------------------------------
	Torsions interaction 0: A=0 B=1 C=2 D=3 Type:TRAPPE_DIHEDRAL
		TRAPPE_DIHEDRAL: p_0/k_B=0.000000   [K], p_1/k_B=355.030000 [K], p_2/k_B=-68.190000 [K], p_3/k_B=791.320000 [K]
	Torsions interaction 1: A=1 B=2 C=3 D=4 Type:TRAPPE_DIHEDRAL
		TRAPPE_DIHEDRAL: p_0/k_B=0.000000   [K], p_1/k_B=355.030000 [K], p_2/k_B=-68.190000 [K], p_3/k_B=791.320000 [K]

	number of intra VDW interactions: 1
	--------------------------------------------
	interaction 0: A=0 B=4  scaling factor: 1

	number of cbmc-config changes: 6
	--------------------------------------------
	nr fixed 3: 0 1 2 
	nr fixed 3: 4 3 2 
	nr fixed 2: 0 1 
	nr fixed 2: 4 3 
	nr fixed 1: 0 
	nr fixed 1: 4 

	number of identity-config changes: 1
	--------------------------------------------
	nr fixed 1: 0 

	Number of pockets blocked in a unitcell: 0
		Pockets are NOT blocked for this component

Component 1 [hexane] (Adsorbate molecule)

	MoleculeDefinitions: ExampleDefinitions
	Component contains no atoms with charge
	Component contains no atoms with point dipoles (polarization)
	Component has a net charge of 0.000000

	Ideal chain Rosenbluth weight: 0.0164786
	Ideal chain total energy: 0.000000

	Critical temparure [K]: 507.820000
	Critical pressure [Pa]: 3034000.000000
	Acentric factor [-]: 0.299000

	RXMC partition factor ln(q/V) [ln(A^(-3))]:       0.0000000000

	Vapour=stable, Liquid=metastable

	MolFraction:           1.0000000000 [-]
	Compressibility:       0.0000000000 [-]

	Density of the bulk fluid phase:       0.0000000000 [kg/m^3]


	Amount of excess molecules:       0.0000000000 [-]

	Conversion factor molecules/unit cell -> mol/kg:       0.1733675050 [-]
	Conversion factor molecules/unit cell -> mg/g:      14.9400071583 [-]
	Conversion factor molecules/unit cell -> cm^3 STP/gr:       3.8858550532 [-]
	Conversion factor molecules/unit cell -> cm^3 STP/cm^3:       6.9803262157 [-]
	Conversion factor mol/kg -> cm^3 STP/gr:      22.4139757476 [-]
	Conversion factor mol/kg -> cm^3 STP/cm^3:      40.2631751230 [-]

	Partial pressure: -16605402.00000000000000 [Pa]
	                    -124540.51499999999942 [Torr]
	                       -166.05402000000001 [bar]
	                       -163.88257586972614 [atm]

	Fugacity coefficient:      -1.0000000000 [-]

	Partial fugacity:  16605402.00000000000000 [Pa]
	                     124540.51499999999942 [Torr]
	                        166.05402000000001 [bar]
	                        163.88257586972614 [atm]

	Molecule contains 6 number of atoms
		atom:    0  is of type:   10 [       CH3] (group: 0)
		atom:    1  is of type:   11 [       CH2] (group: 0)
		atom:    2  is of type:   11 [       CH2] (group: 0)
		atom:    3  is of type:   11 [       CH2] (group: 0)
		atom:    4  is of type:   11 [       CH2] (group: 0)
		atom:    5  is of type:   10 [       CH3] (group: 0)

	Molecule contains 0 chirality centers

	Molecule contains 1 number of groups

		group: 0 containing: 6 elements
		-------------------------------------------------
		the group is modelled as flexible, i.e. no constraints
		Mass: 86.175360 [a.u.]
		Mass: 3.354672 [kg/m^3]

		Rotational Degrees of freedom: 0
		Diagonalized inertia vector:       0.0000000000
		                                   0.0000000000
		                                   0.0000000000
		element: 0 atom: 0 [       CH3] Charge:  0.000000 Anisotropy: 0.000000 Connectivity: 1 (1 )
		element: 1 atom: 1 [       CH2] Charge:  0.000000 Anisotropy: 0.000000 Connectivity: 2 (0 2 )
		element: 2 atom: 2 [       CH2] Charge:  0.000000 Anisotropy: 0.000000 Connectivity: 2 (1 3 )
		element: 3 atom: 3 [       CH2] Charge:  0.000000 Anisotropy: 0.000000 Connectivity: 2 (2 4 )
		element: 4 atom: 4 [       CH2] Charge:  0.000000 Anisotropy: 0.000000 Connectivity: 2 (3 5 )
		element: 5 atom: 5 [       CH3] Charge:  0.000000 Anisotropy: 0.000000 Connectivity: 1 (4 )

		Dipole:           0.0000000000 [D]
		Quadrupole:       0.0000000000       0.0000000000       0.0000000000 [D Angstrom]
		Quadrupole tensor [D Angstrom]
				       0.0000000000       0.0000000000       0.0000000000
				       0.0000000000       0.0000000000       0.0000000000
				       0.0000000000       0.0000000000       0.0000000000

	Starting bead for growth               : 0

	Degrees of freedom                     : 0
	Translational degrees of freedom       : 0
	Rotational degrees of freedom          : 0
	Vibrational degrees of freedom         : 0
	Constraint degrees of freedom          : 0

	Number of atoms                        : 6

	Number of constraint bonds             : 0
	Number of constraint bends             : 0
	Number of constraint inversion bends   : 0
	Number of constraint torsions          : 0
	Number of constraint improper torsions : 0
	Number of constraint improper torsions : 0

	Number of bonds                        : 5
	Number of Urey-Bradleys                : 0
	Number of bends                        : 4
	Number of inversion bends              : 0
	Number of torsions                     : 3
	Number of improper torsions            : 0
	Number of improper torsions            : 0

	Number of bond/bond cross terms        : 0
	Number of bond/bend cross terms        : 0
	Number of bend/bend cross terms        : 0
	Number of stretch/torsion cross terms  : 0
	Number of bend/torsion cross terms     : 0

	Number of charges                      : 0
	Number of bond-dipoles                 : 0

	Number of intra Van der Waals                             : 3
	Number of intra charge-charge Coulomb                     : 0
	Number of intra charge-bonddipole Coulomb                 : 0
	Number of intra bonddipole-bonddipole Coulomb             : 0

	Number of excluded intra charge-charge Coulomb                     : 0
	Number of excluded intra charge-bonddipole Coulomb                 : 0
	Number of excluded intra bonddipole-bonddipole Coulomb             : 0

	Number of cbmc-config moves                               : 8

	Particle Moves:             
		ProbabilityTranslationMove:                  0.000000
			TranslationDirection:      XYZ
		Percentage of random translation moves:            0.000000
		Percentage of rotation moves:                      0.000000
		Percentage of random rotation moves:               0.000000
		Percentage of partial reinsertion moves:           0.000000
		Percentage of reinsertion moves:                   0.000000
		Percentage of reinsertion-in-place moves:          0.000000
		Percentage of reinsertion-in-plane moves:          0.000000
		Percentage of identity-change moves:               0.000000
		Percentage of swap (insert/delete) moves:          0.000000
		Percentage of CF swap lambda moves:                0.000000
		Percentage of CB/CFMC swap lambda moves:           0.000000
		Percentage of Widom insertion moves:               100.000000
		Percentage of CF-Widom insertion moves:            0.000000
		Percentage of Gibbs Widom insertion moves:         0.000000
		Percentage of surface-area moves:                  0.000000
		Percentage of Gibbs particle-transfer moves:       0.000000
		Percentage of Gibbs identity-change moves:         0.000000
		Percentage of CF Gibbs lambda-transfer moves:      0.000000
		Percentage of CB/CFMC Gibbs lambda-transfer moves: 0.000000
		Percentage of exchange frac./int. particle moves:  0.000000
		Percentage of fractional mol. to other box moves:  0.000000
		Percentage of lambda-change moves:                 0.000000
		Percentage of fractional to integer moves:         0.000000

	System Moves:
		Percentage of parallel-tempering moves:            0.000000
		Percentage of hyper-parallel-tempering moves:      0.000000
		Percentage of parallel-mol-fraction moves:         0.000000
			   Component A: 0 B: 1
		Percentage of chiral inversion moves:              0.000000
		Percentage of Hybrid-NVE moves:                    0.000000
		Percentage of Hybrid-NPH moves:                    0.000000
		Percentage of Hybrid-NPHPR moves:                  0.000000
		Percentage of volume-change moves:                 0.000000
		Percentage of box-shape-change moves:              0.000000
		Percentage of Gibbs volume-change moves:           0.000000
		Percentage of framework-change moves:              0.000000
		Percentage of framework-shift moves:               0.000000
		Percentage of reactive MC moves:                   0.000000

	Moves are restricted: No
	No biased sampling used for this component

	Number of Bonds: 5
	--------------------------------------------
	Bond interaction 0: A=0 B=1 Type:HARMONIC_BOND
		HARMONIC_BOND: p_0/k_B=96500.000000 [K/A^2], p_1=1.540000   [A]
	Bond interaction 1: A=1 B=2 Type:HARMONIC_BOND
		HARMONIC_BOND: p_0/k_B=96500.000000 [K/A^2], p_1=1.540000   [A]
	Bond interaction 2: A=2 B=3 Type:HARMONIC_BOND
		HARMONIC_BOND: p_0/k_B=96500.000000 [K/A^2], p_1=1.540000   [A]
	Bond interaction 3: A=3 B=4 Type:HARMONIC_BOND
		HARMONIC_BOND: p_0/k_B=96500.000000 [K/A^2], p_1=1.540000   [A]
	Bond interaction 4: A=4 B=5 Type:HARMONIC_BOND
		HARMONIC_BOND: p_0/k_B=96500.000000 [K/A^2], p_1=1.540000   [A]

	Number of Bends: 4
	--------------------------------------------
	Bend interaction 0: A=0 B=1 C=2 Type:HARMONIC_BEND
		HARMONIC_BEND: p_0/k_B=62500.000000 [K/rad^2], p_1=114.000000 [degrees]
	Bend interaction 1: A=1 B=2 C=3 Type:HARMONIC_BEND
		HARMONIC_BEND: p_0/k_B=62500.000000 [K/rad^2], p_1=114.000000 [degrees]
	Bend interaction 2: A=2 B=3 C=4 Type:HARMONIC_BEND
		HARMONIC_BEND: p_0/k_B=62500.000000 [K/rad^2], p_1=114.000000 [degrees]
	Bend interaction 3: A=3 B=4 C=5 Type:HARMONIC_BEND
		HARMONIC_BEND: p_0/k_B=62500.000000 [K/rad^2], p_1=114.000000 [degrees]

	Number of Torsions: 3
	--------------------------------------------
	Torsions interaction 0: A=0 B=1 C=2 D=3 Type:TRAPPE_DIHEDRAL
		TRAPPE_DIHEDRAL: p_0/k_B=0.000000   [K], p_1/k_B=355.030000 [K], p_2/k_B=-68.190000 [K], p_3/k_B=791.320000 [K]
	Torsions interaction 1: A=1 B=2 C=3 D=4 Type:TRAPPE_DIHEDRAL
		TRAPPE_DIHEDRAL: p_0/k_B=0.000000   [K], p_1/k_B=355.030000 [K], p_2/k_B=-68.190000 [K], p_3/k_B=791.320000 [K]
	Torsions interaction 2: A=2 B=3 C=4 D=5 Type:TRAPPE_DIHEDRAL
		TRAPPE_DIHEDRAL: p_0/k_B=0.000000   [K], p_1/k_B=355.030000 [K], p_2/k_B=-68.190000 [K], p_3/k_B=791.320000 [K]

	number of intra VDW interactions: 3
	--------------------------------------------
	interaction 0: A=0 B=4  scaling factor: 1
	interaction 1: A=0 B=5  scaling factor: 1
	interaction 2: A=1 B=5  scaling factor: 1

	number of cbmc-config changes: 8
	--------------------------------------------
	nr fixed 4: 0 1 2 3 
	nr fixed 4: 5 4 3 2 
	nr fixed 3: 0 1 2 
	nr fixed 3: 5 4 3 
	nr fixed 2: 0 1 
	nr fixed 2: 5 4 
	nr fixed 1: 0 
	nr fixed 1: 5 

	number of identity-config changes: 1
	--------------------------------------------
	nr fixed 1: 0 

	Number of pockets blocked in a unitcell: 0
		Pockets are NOT blocked for this component

Component 2 [heptane] (Adsorbate molecule)

	MoleculeDefinitions: ExampleDefinitions
	Component contains no atoms with charge
	Component contains no atoms with point dipoles (polarization)
	Component has a net charge of 0.000000

	Ideal chain Rosenbluth weight: 0.00425633
	Ideal chain total energy: 0.000000

	Critical temparure [K]: 540.130000
	Critical pressure [Pa]: 2736000.000000
	Acentric factor [-]: 0.349000

	RXMC partition factor ln(q/V) [ln(A^(-3))]:       0.0000000000

	Vapour=stable, Liquid=metastable

	MolFraction:           1.0000000000 [-]
	Compressibility:       0.0000000000 [-]

	Density of the bulk fluid phase:       0.0000000000 [kg/m^3]


	Amount of excess molecules:       0.0000000000 [-]

	Conversion factor molecules/unit cell -> mol/kg:       0.1733675050 [-]
	Conversion factor molecules/unit cell -> mg/g:      17.3717603370 [-]
	Conversion factor molecules/unit cell -> cm^3 STP/gr:       3.8858550532 [-]
	Conversion factor molecules/unit cell -> cm^3 STP/cm^3:       6.9803262157 [-]
	Conversion factor mol/kg -> cm^3 STP/gr:      22.4139757476 [-]
	Conversion factor mol/kg -> cm^3 STP/cm^3:      40.2631751230 [-]

	Partial pressure: -16605402.00000000000000 [Pa]
	                    -124540.51499999999942 [Torr]
	                       -166.05402000000001 [bar]
	                       -163.88257586972614 [atm]

	Fugacity coefficient:      -1.0000000000 [-]

	Partial fugacity:  16605402.00000000000000 [Pa]
	                     124540.51499999999942 [Torr]
	                        166.05402000000001 [bar]
	                        163.88257586972614 [atm]

	Molecule contains 7 number of atoms
		atom:    0  is of type:   10 [       CH3] (group: 0)
		atom:    1  is of type:   11 [       CH2] (group: 0)
		atom:    2  is of type:   11 [       CH2] (group: 0)
		atom:    3  is of type:   11 [       CH2] (group: 0)
		atom:    4  is of type:   11 [       CH2] (group: 0)
		atom:    5  is of type:   11 [       CH2] (group: 0)
		atom:    6  is of type:   10 [       CH3] (group: 0)

	Molecule contains 0 chirality centers

	Molecule contains 1 number of groups

		group: 0 containing: 7 elements
		-------------------------------------------------
		the group is modelled as flexible, i.e. no constraints
		Mass: 100.201940 [a.u.]
		Mass: 3.900705 [kg/m^3]

		Rotational Degrees of freedom: 0
		Diagonalized inertia vector:       0.0000000000
		                                   0.0000000000
		                                   0.0000000000
		element: 0 atom: 0 [       CH3] Charge:  0.000000 Anisotropy: 0.000000 Connectivity: 1 (1 )
		element: 1 atom: 1 [       CH2] Charge:  0.000000 Anisotropy: 0.000000 Connectivity: 2 (0 2 )
		element: 2 atom: 2 [       CH2] Charge:  0.000000 Anisotropy: 0.000000 Connectivity: 2 (1 3 )
		element: 3 atom: 3 [       CH2] Charge:  0.000000 Anisotropy: 0.000000 Connectivity: 2 (2 4 )
		element: 4 atom: 4 [       CH2] Charge:  0.000000 Anisotropy: 0.000000 Connectivity: 2 (3 5 )
		element: 5 atom: 5 [       CH2] Charge:  0.000000 Anisotropy: 0.000000 Connectivity: 2 (4 6 )
		element: 6 atom: 6 [       CH3] Charge:  0.000000 Anisotropy: 0.000000 Connectivity: 1 (5 )

		Dipole:           0.0000000000 [D]
		Quadrupole:       0.0000000000       0.0000000000       0.0000000000 [D Angstrom]
		Quadrupole tensor [D Angstrom]
				       0.0000000000       0.0000000000       0.0000000000
				       0.0000000000       0.0000000000       0.0000000000
				       0.0000000000       0.0000000000       0.0000000000

	Starting bead for growth               : 0

	Degrees of freedom                     : 0
	Translational degrees of freedom       : 0
	Rotational degrees of freedom          : 0
	Vibrational degrees of freedom         : 0
	Constraint degrees of freedom          : 0

	Number of atoms                        : 7

	Number of constraint bonds             : 0
	Number of constraint bends             : 0
	Number of constraint inversion bends   : 0
	Number of constraint torsions          : 0
	Number of constraint improper torsions : 0
	Number of constraint improper torsions : 0

	Number of bonds                        : 6
	Number of Urey-Bradleys                : 0
	Number of bends                        : 5
	Number of inversion bends              : 0
	Number of torsions                     : 4
	Number of improper torsions            : 0
	Number of improper torsions            : 0

	Number of bond/bond cross terms        : 0
	Number of bond/bend cross terms        : 0
	Number of bend/bend cross terms        : 0
	Number of stretch/torsion cross terms  : 0
	Number of bend/torsion cross terms     : 0

	Number of charges                      : 0
	Number of bond-dipoles                 : 0

	Number of intra Van der Waals                             : 6
	Number of intra charge-charge Coulomb                     : 0
	Number of intra charge-bonddipole Coulomb                 : 0
	Number of intra bonddipole-bonddipole Coulomb             : 0

	Number of excluded intra charge-charge Coulomb                     : 0
	Number of excluded intra charge-bonddipole Coulomb                 : 0
	Number of excluded intra bonddipole-bonddipole Coulomb             : 0

	Number of cbmc-config moves                               : 10

	Particle Moves:             
		ProbabilityTranslationMove:                  0.000000
			TranslationDirection:      XYZ
		Percentage of random translation moves:            0.000000
		Percentage of rotation moves:                      0.000000
		Percentage of random rotation moves:               0.000000
		Percentage of partial reinsertion moves:           0.000000
		Percentage of reinsertion moves:                   0.000000
		Percentage of reinsertion-in-place moves:          0.000000
		Percentage of reinsertion-in-plane moves:          0.000000
		Percentage of identity-change moves:               0.000000
		Percentage of swap (insert/delete) moves:          0.000000
		Percentage of CF swap lambda moves:                0.000000
		Percentage of CB/CFMC swap lambda moves:           0.000000
		Percentage of Widom insertion moves:               100.000000
		Percentage of CF-Widom insertion moves:            0.000000
		Percentage of Gibbs Widom insertion moves:         0.000000
		Percentage of surface-area moves:                  0.000000
		Percentage of Gibbs particle-transfer moves:       0.000000
		Percentage of Gibbs identity-change moves:         0.000000
		Percentage of CF Gibbs lambda-transfer moves:      0.000000
		Percentage of CB/CFMC Gibbs lambda-transfer moves: 0.000000
		Percentage of exchange frac./int. particle moves:  0.000000
		Percentage of fractional mol. to other box moves:  0.000000
		Percentage of lambda-change moves:                 0.000000
		Percentage of fractional to integer moves:         0.000000

	System Moves:
		Percentage of parallel-tempering moves:            0.000000
		Percentage of hyper-parallel-tempering moves:      0.000000
		Percentage of parallel-mol-fraction moves:         0.000000
			   Component A: 0 B: 1
		Percentage of chiral inversion moves:              0.000000
		Percentage of Hybrid-NVE moves:                    0.000000
		Percentage of Hybrid-NPH moves:                    0.000000
		Percentage of Hybrid-NPHPR moves:                  0.000000
		Percentage of volume-change moves:                 0.000000
		Percentage of box-shape-change moves:              0.000000
		Percentage of Gibbs volume-change moves:           0.000000
		Percentage of framework-change moves:              0.000000
		Percentage of framework-shift moves:               0.000000
		Percentage of reactive MC moves:                   0.000000

	Moves are restricted: No
	No biased sampling used for this component

	Number of Bonds: 6
	--------------------------------------------
	Bond interaction 0: A=0 B=1 Type:HARMONIC_BOND
		HARMONIC_BOND: p_0/k_B=96500.000000 [K/A^2], p_1=1.540000   [A]
	Bond interaction 1: A=1 B=2 Type:HARMONIC_BOND
		HARMONIC_BOND: p_0/k_B=96500.000000 [K/A^2], p_1=1.540000   [A]
	Bond interaction 2: A=2 B=3 Type:HARMONIC_BOND
		HARMONIC_BOND: p_0/k_B=96500.000000 [K/A^2], p_1=1.540000   [A]
	Bond interaction 3: A=3 B=4 Type:HARMONIC_BOND
		HARMONIC_BOND: p_0/k_B=96500.000000 [K/A^2], p_1=1.540000   [A]
	Bond interaction 4: A=4 B=5 Type:HARMONIC_BOND
		HARMONIC_BOND: p_0/k_B=96500.000000 [K/A^2], p_1=1.540000   [A]
	Bond interaction 5: A=5 B=6 Type:HARMONIC_BOND
		HARMONIC_BOND: p_0/k_B=96500.000000 [K/A^2], p_1=1.540000   [A]

	Number of Bends: 5
	--------------------------------------------
	Bend interaction 0: A=0 B=1 C=2 Type:HARMONIC_BEND
		HARMONIC_BEND: p_0/k_B=62500.000000 [K/rad^2], p_1=114.000000 [degrees]
	Bend interaction 1: A=1 B=2 C=3 Type:HARMONIC_BEND
		HARMONIC_BEND: p_0/k_B=62500.000000 [K/rad^2], p_1=114.000000 [degrees]
	Bend interaction 2: A=2 B=3 C=4 Type:HARMONIC_BEND
		HARMONIC_BEND: p_0/k_B=62500.000000 [K/rad^2], p_1=114.000000 [degrees]
	Bend interaction 3: A=3 B=4 C=5 Type:HARMONIC_BEND
		HARMONIC_BEND: p_0/k_B=62500.000000 [K/rad^2], p_1=114.000000 [degrees]
	Bend interaction 4: A=4 B=5 C=6 Type:HARMONIC_BEND
		HARMONIC_BEND: p_0/k_B=62500.000000 [K/rad^2], p_1=114.000000 [degrees]

	Number of Torsions: 4
	--------------------------------------------
	Torsions interaction 0: A=0 B=1 C=2 D=3 Type:TRAPPE_DIHEDRAL
		TRAPPE_DIHEDRAL: p_0/k_B=0.000000   [K], p_1/k_B=355.030000 [K], p_2/k_B=-68.190000 [K], p_3/k_B=791.320000 [K]
	Torsions interaction 1: A=1 B=2 C=3 D=4 Type:TRAPPE_DIHEDRAL
		TRAPPE_DIHEDRAL: p_0/k_B=0.000000   [K], p_1/k_B=355.030000 [K], p_2/k_B=-68.190000 [K], p_3/k_B=791.320000 [K]
	Torsions interaction 2: A=2 B=3 C=4 D=5 Type:TRAPPE_DIHEDRAL
		TRAPPE_DIHEDRAL: p_0/k_B=0.000000   [K], p_1/k_B=355.030000 [K], p_2/k_B=-68.190000 [K], p_3/k_B=791.320000 [K]
	Torsions interaction 3: A=3 B=4 C=5 D=6 Type:TRAPPE_DIHEDRAL
		TRAPPE_DIHEDRAL: p_0/k_B=0.000000   [K], p_1/k_B=355.030000 [K], p_2/k_B=-68.190000 [K], p_3/k_B=791.320000 [K]

	number of intra VDW interactions: 6
	--------------------------------------------
	interaction 0: A=0 B=4  scaling factor: 1
	interaction 1: A=0 B=5  scaling factor: 1
	interaction 2: A=0 B=6  scaling factor: 1
	interaction 3: A=1 B=5  scaling factor: 1
	interaction 4: A=1 B=6  scaling factor: 1
	interaction 5: A=2 B=6  scaling factor: 1

	number of cbmc-config changes: 10
	--------------------------------------------
	nr fixed 5: 0 1 2 3 4 
	nr fixed 5: 6 5 4 3 2 
	nr fixed 4: 0 1 2 3 
	nr fixed 4: 6 5 4 3 
	nr fixed 3: 0 1 2 
	nr fixed 3: 6 5 4 
	nr fixed 2: 6 5 
	nr fixed 2: 0 1 
	nr fixed 1: 6 
	nr fixed 1: 0 

	number of identity-config changes: 1
	--------------------------------------------
	nr fixed 1: 0 

	Number of pockets blocked in a unitcell: 0
		Pockets are NOT blocked for this component

Component 3 [octane] (Adsorbate molecule)

	MoleculeDefinitions: ExampleDefinitions
	Component contains no atoms with charge
	Component contains no atoms with point dipoles (polarization)
	Component has a net charge of 0.000000

	Ideal chain Rosenbluth weight: 0.00110671
	Ideal chain total energy: 0.000000

	Critical temparure [K]: 569.320000
	Critical pressure [Pa]: 2497000.000000
	Acentric factor [-]: 0.393000

	RXMC partition factor ln(q/V) [ln(A^(-3))]:       0.0000000000

	Vapour=stable, Liquid=metastable

	MolFraction:           1.0000000000 [-]
	Compressibility:       0.0000000000 [-]

	Density of the bulk fluid phase:       0.0000000000 [kg/m^3]


	Amount of excess molecules:       0.0000000000 [-]

	Conversion factor molecules/unit cell -> mol/kg:       0.1733675050 [-]
	Conversion factor molecules/unit cell -> mg/g:      19.8035135158 [-]
	Conversion factor molecules/unit cell -> cm^3 STP/gr:       3.8858550532 [-]
	Conversion factor molecules/unit cell -> cm^3 STP/cm^3:       6.9803262157 [-]
	Conversion factor mol/kg -> cm^3 STP/gr:      22.4139757476 [-]
	Conversion factor mol/kg -> cm^3 STP/cm^3:      40.2631751230 [-]

	Partial pressure: -16605402.00000000000000 [Pa]
	                    -124540.51499999999942 [Torr]
	                       -166.05402000000001 [bar]
	                       -163.88257586972614 [atm]

	Fugacity coefficient:      -1.0000000000 [-]

	Partial fugacity:  16605402.00000000000000 [Pa]
	                     124540.51499999999942 [Torr]
	                        166.05402000000001 [bar]
	                        163.88257586972614 [atm]

	Molecule contains 8 number of atoms
		atom:    0  is of type:   10 [       CH3] (group: 0)
		atom:    1  is of type:   11 [       CH2] (group: 0)
		atom:    2  is of type:   11 [       CH2] (group: 0)
		atom:    3  is of type:   11 [       CH2] (group: 0)
		atom:    4  is of type:   11 [       CH2] (group: 0)
		atom:    5  is of type:   11 [       CH2] (group: 0)
		atom:    6  is of type:   11 [       CH2] (group: 0)
		atom:    7  is of type:   10 [       CH3] (group: 0)

	Molecule contains 0 chirality centers

	Molecule contains 1 number of groups

		group: 0 containing: 8 elements
		-------------------------------------------------
		the group is modelled as flexible, i.e. no constraints
		Mass: 114.228520 [a.u.]
		Mass: 4.446738 [kg/m^3]

		Rotational Degrees of freedom: 0
		Diagonalized inertia vector:       0.0000000000
		                                   0.0000000000
		                                   0.0000000000
		element: 0 atom: 0 [       CH3] Charge:  0.000000 Anisotropy: 0.000000 Connectivity: 1 (1 )
		element: 1 atom: 1 [       CH2] Charge:  0.000000 Anisotropy: 0.000000 Connectivity: 2 (0 2 )
		element: 2 atom: 2 [       CH2] Charge:  0.000000 Anisotropy: 0.000000 Connectivity: 2 (1 3 )
		element: 3 atom: 3 [       CH2] Charge:  0.000000 Anisotropy: 0.000000 Connectivity: 2 (2 4 )
		element: 4 atom: 4 [       CH2] Charge:  0.000000 Anisotropy: 0.000000 Connectivity: 2 (3 5 )
		element: 5 atom: 5 [       CH2] Charge:  0.000000 Anisotropy: 0.000000 Connectivity: 2 (4 6 )
		element: 6 atom: 6 [       CH2] Charge:  0.000000 Anisotropy: 0.000000 Connectivity: 2 (5 7 )
		element: 7 atom: 7 [       CH3] Charge:  0.000000 Anisotropy: 0.000000 Connectivity: 1 (6 )

		Dipole:           0.0000000000 [D]
		Quadrupole:       0.0000000000       0.0000000000       0.0000000000 [D Angstrom]
		Quadrupole tensor [D Angstrom]
				       0.0000000000       0.0000000000       0.0000000000
				       0.0000000000       0.0000000000       0.0000000000
				       0.0000000000       0.0000000000       0.0000000000

	Starting bead for growth               : 0

	Degrees of freedom                     : 0
	Translational degrees of freedom       : 0
	Rotational degrees of freedom          : 0
	Vibrational degrees of freedom         : 0
	Constraint degrees of freedom          : 0

	Number of atoms                        : 8

	Number of constraint bonds             : 0
	Number of constraint bends             : 0
	Number of constraint inversion bends   : 0
	Number of constraint torsions          : 0
	Number of constraint improper torsions : 0
	Number of constraint improper torsions : 0

	Number of bonds                        : 7
	Number of Urey-Bradleys                : 0
	Number of bends                        : 6
	Number of inversion bends              : 0
	Number of torsions                     : 5
	Number of improper torsions            : 0
	Number of improper torsions            : 0

	Number of bond/bond cross terms        : 0
	Number of bond/bend cross terms        : 0
	Number of bend/bend cross terms        : 0
	Number of stretch/torsion cross terms  : 0
	Number of bend/torsion cross terms     : 0

	Number of charges                      : 0
	Number of bond-dipoles                 : 0

	Number of intra Van der Waals                             : 10
	Number of intra charge-charge Coulomb                     : 0
	Number of intra charge-bonddipole Coulomb                 : 0
	Number of intra bonddipole-bonddipole Coulomb             : 0

	Number of excluded intra charge-charge Coulomb                     : 0
	Number of excluded intra charge-bonddipole Coulomb                 : 0
	Number of excluded intra bonddipole-bonddipole Coulomb             : 0

	Number of cbmc-config moves                               : 10

	Particle Moves:             
		ProbabilityTranslationMove:                  0.000000
			TranslationDirection:      XYZ
		Percentage of random translation moves:            0.000000
		Percentage of rotation moves:                      0.000000
		Percentage of random rotation moves:               0.000000
		Percentage of partial reinsertion moves:           0.000000
		Percentage of reinsertion moves:                   0.000000
		Percentage of reinsertion-in-place moves:          0.000000
		Percentage of reinsertion-in-plane moves:          0.000000
		Percentage of identity-change moves:               0.000000
		Percentage of swap (insert/delete) moves:          0.000000
		Percentage of CF swap lambda moves:                0.000000
		Percentage of CB/CFMC swap lambda moves:           0.000000
		Percentage of Widom insertion moves:               100.000000
		Percentage of CF-Widom insertion moves:            0.000000
		Percentage of Gibbs Widom insertion moves:         0.000000
		Percentage of surface-area moves:                  0.000000
		Percentage of Gibbs particle-transfer moves:       0.000000
		Percentage of Gibbs identity-change moves:         0.000000
		Percentage of CF Gibbs lambda-transfer moves:      0.000000
		Percentage of CB/CFMC Gibbs lambda-transfer moves: 0.000000
		Percentage of exchange frac./int. particle moves:  0.000000
		Percentage of fractional mol. to other box moves:  0.000000
		Percentage of lambda-change moves:                 0.000000
		Percentage of fractional to integer moves:         0.000000

	System Moves:
		Percentage of parallel-tempering moves:            0.000000
		Percentage of hyper-parallel-tempering moves:      0.000000
		Percentage of parallel-mol-fraction moves:         0.000000
			   Component A: 0 B: 1
		Percentage of chiral inversion moves:              0.000000
		Percentage of Hybrid-NVE moves:                    0.000000
		Percentage of Hybrid-NPH moves:                    0.000000
		Percentage of Hybrid-NPHPR moves:                  0.000000
		Percentage of volume-change moves:                 0.000000
		Percentage of box-shape-change moves:              0.000000
		Percentage of Gibbs volume-change moves:           0.000000
		Percentage of framework-change moves:              0.000000
		Percentage of framework-shift moves:               0.000000
		Percentage of reactive MC moves:                   0.000000

	Moves are restricted: No
	No biased sampling used for this component

	Number of Bonds: 7
	--------------------------------------------
	Bond interaction 0: A=0 B=1 Type:HARMONIC_BOND
		HARMONIC_BOND: p_0/k_B=96500.000000 [K/A^2], p_1=1.540000   [A]
	Bond interaction 1: A=1 B=2 Type:HARMONIC_BOND
		HARMONIC_BOND: p_0/k_B=96500.000000 [K/A^2], p_1=1.540000   [A]
	Bond interaction 2: A=2 B=3 Type:HARMONIC_BOND
		HARMONIC_BOND: p_0/k_B=96500.000000 [K/A^2], p_1=1.540000   [A]
	Bond interaction 3: A=3 B=4 Type:HARMONIC_BOND
		HARMONIC_BOND: p_0/k_B=96500.000000 [K/A^2], p_1=1.540000   [A]
	Bond interaction 4: A=4 B=5 Type:HARMONIC_BOND
		HARMONIC_BOND: p_0/k_B=96500.000000 [K/A^2], p_1=1.540000   [A]
	Bond interaction 5: A=5 B=6 Type:HARMONIC_BOND
		HARMONIC_BOND: p_0/k_B=96500.000000 [K/A^2], p_1=1.540000   [A]
	Bond interaction 6: A=6 B=7 Type:HARMONIC_BOND
		HARMONIC_BOND: p_0/k_B=96500.000000 [K/A^2], p_1=1.540000   [A]

	Number of Bends: 6
	--------------------------------------------
	Bend interaction 0: A=0 B=1 C=2 Type:HARMONIC_BEND
		HARMONIC_BEND: p_0/k_B=62500.000000 [K/rad^2], p_1=114.000000 [degrees]
	Bend interaction 1: A=1 B=2 C=3 Type:HARMONIC_BEND
		HARMONIC_BEND: p_0/k_B=62500.000000 [K/rad^2], p_1=114.000000 [degrees]
	Bend interaction 2: A=2 B=3 C=4 Type:HARMONIC_BEND
		HARMONIC_BEND: p_0/k_B=62500.000000 [K/rad^2], p_1=114.000000 [degrees]
	Bend interaction 3: A=3 B=4 C=5 Type:HARMONIC_BEND
		HARMONIC_BEND: p_0/k_B=62500.000000 [K/rad^2], p_1=114.000000 [degrees]
	Bend interaction 4: A=4 B=5 C=6 Type:HARMONIC_BEND
		HARMONIC_BEND: p_0/k_B=62500.000000 [K/rad^2], p_1=114.000000 [degrees]
	Bend interaction 5: A=5 B=6 C=7 Type:HARMONIC_BEND
		HARMONIC_BEND: p_0/k_B=62500.000000 [K/rad^2], p_1=114.000000 [degrees]

	Number of Torsions: 5
	--------------------------------------------
	Torsions interaction 0: A=0 B=1 C=2 D=3 Type:TRAPPE_DIHEDRAL
		TRAPPE_DIHEDRAL: p_0/k_B=0.000000   [K], p_1/k_B=355.030000 [K], p_2/k_B=-68.190000 [K], p_3/k_B=791.320000 [K]
	Torsions interaction 1: A=1 B=2 C=3 D=4 Type:TRAPPE_DIHEDRAL
		TRAPPE_DIHEDRAL: p_0/k_B=0.000000   [K], p_1/k_B=355.030000 [K], p_2/k_B=-68.190000 [K], p_3/k_B=791.320000 [K]
	Torsions interaction 2: A=2 B=3 C=4 D=5 Type:TRAPPE_DIHEDRAL
		TRAPPE_DIHEDRAL: p_0/k_B=0.000000   [K], p_1/k_B=355.030000 [K], p_2/k_B=-68.190000 [K], p_3/k_B=791.320000 [K]
	Torsions interaction 3: A=3 B=4 C=5 D=6 Type:TRAPPE_DIHEDRAL
		TRAPPE_DIHEDRAL: p_0/k_B=0.000000   [K], p_1/k_B=355.030000 [K], p_2/k_B=-68.190000 [K], p_3/k_B=791.320000 [K]
	Torsions interaction 4: A=4 B=5 C=6 D=7 Type:TRAPPE_DIHEDRAL
		TRAPPE_DIHEDRAL: p_0/k_B=0.000000   [K], p_1/k_B=355.030000 [K], p_2/k_B=-68.190000 [K], p_3/k_B=791.320000 [K]

	number of intra VDW interactions: 10
	--------------------------------------------
	interaction 0: A=0 B=4  scaling factor: 1
	interaction 1: A=0 B=5  scaling factor: 1
	interaction 2: A=0 B=6  scaling factor: 1
	interaction 3: A=0 B=7  scaling factor: 1
	interaction 4: A=1 B=5  scaling factor: 1
	interaction 5: A=1 B=6  scaling factor: 1
	interaction 6: A=1 B=7  scaling factor: 1
	interaction 7: A=2 B=6  scaling factor: 1
	interaction 8: A=2 B=7  scaling factor: 1
	interaction 9: A=3 B=7  scaling factor: 1

	number of cbmc-config changes: 10
	--------------------------------------------
	nr fixed 5: 0 1 2 3 4 
	nr fixed 5: 7 6 5 4 3 
	nr fixed 4: 0 1 2 3 
	nr fixed 4: 7 6 5 4 
	nr fixed 3: 0 1 2 
	nr fixed 3: 7 6 5 
	nr fixed 2: 7 6 
	nr fixed 2: 0 1 
	nr fixed 1: 7 
	nr fixed 1: 0 

	number of identity-config changes: 1
	--------------------------------------------
	nr fixed 1: 0 

	Number of pockets blocked in a unitcell: 0
		Pockets are NOT blocked for this component

Component 4 [nonane] (Adsorbate molecule)

	MoleculeDefinitions: ExampleDefinitions
	Component contains no atoms with charge
	Component contains no atoms with point dipoles (polarization)
	Component has a net charge of 0.000000

	Ideal chain Rosenbluth weight: 0.000289443
	Ideal chain total energy: 0.000000

	Critical temparure [K]: 594.550000
	Critical pressure [Pa]: 2281000.000000
	Acentric factor [-]: 0.443000

	RXMC partition factor ln(q/V) [ln(A^(-3))]:       0.0000000000

	Vapour=stable, Liquid=metastable

	MolFraction:           1.0000000000 [-]
	Compressibility:       0.0000000000 [-]

	Density of the bulk fluid phase:       0.0000000000 [kg/m^3]


	Amount of excess molecules:       0.0000000000 [-]

	Conversion factor molecules/unit cell -> mol/kg:       0.1733675050 [-]
	Conversion factor molecules/unit cell -> mg/g:      22.2352666945 [-]
	Conversion factor molecules/unit cell -> cm^3 STP/gr:       3.8858550532 [-]
	Conversion factor molecules/unit cell -> cm^3 STP/cm^3:       6.9803262157 [-]
	Conversion factor mol/kg -> cm^3 STP/gr:      22.4139757476 [-]
	Conversion factor mol/kg -> cm^3 STP/cm^3:      40.2631751230 [-]

	Partial pressure: -16605402.00000000000000 [Pa]
	                    -124540.51499999999942 [Torr]
	                       -166.05402000000001 [bar]
	                       -163.88257586972614 [atm]

	Fugacity coefficient:      -1.0000000000 [-]

	Partial fugacity:  16605402.00000000000000 [Pa]
	                     124540.51499999999942 [Torr]
	                        166.05402000000001 [bar]
	                        163.88257586972614 [atm]

	Molecule contains 9 number of atoms
		atom:    0  is of type:   10 [       CH3] (group: 0)
		atom:    1  is of type:   11 [       CH2] (group: 0)
		atom:    2  is of type:   11 [       CH2] (group: 0)
		atom:    3  is of type:   11 [       CH2] (group: 0)
		atom:    4  is of type:   11 [       CH2] (group: 0)
		atom:    5  is of type:   11 [       CH2] (group: 0)
		atom:    6  is of type:   11 [       CH2] (group: 0)
		atom:    7  is of type:   11 [       CH2] (group: 0)
		atom:    8  is of type:   10 [       CH3] (group: 0)

	Molecule contains 0 chirality centers

	Molecule contains 1 number of groups

		group: 0 containing: 9 elements
		-------------------------------------------------
		the group is modelled as flexible, i.e. no constraints
		Mass: 128.255100 [a.u.]
		Mass: 4.992771 [kg/m^3]

		Rotational Degrees of freedom: 0
		Diagonalized inertia vector:       0.0000000000
		                                   0.0000000000
		                                   0.0000000000
		element: 0 atom: 0 [       CH3] Charge:  0.000000 Anisotropy: 0.000000 Connectivity: 1 (1 )
		element: 1 atom: 1 [       CH2] Charge:  0.000000 Anisotropy: 0.000000 Connectivity: 2 (0 2 )
		element: 2 atom: 2 [       CH2] Charge:  0.000000 Anisotropy: 0.000000 Connectivity: 2 (1 3 )
		element: 3 atom: 3 [       CH2] Charge:  0.000000 Anisotropy: 0.000000 Connectivity: 2 (2 4 )
		element: 4 atom: 4 [       CH2] Charge:  0.000000 Anisotropy: 0.000000 Connectivity: 2 (3 5 )
		element: 5 atom: 5 [       CH2] Charge:  0.000000 Anisotropy: 0.000000 Connectivity: 2 (4 6 )
		element: 6 atom: 6 [       CH2] Charge:  0.000000 Anisotropy: 0.000000 Connectivity: 2 (5 7 )
		element: 7 atom: 7 [       CH2] Charge:  0.000000 Anisotropy: 0.000000 Connectivity: 2 (6 8 )
		element: 8 atom: 8 [       CH3] Charge:  0.000000 Anisotropy: 0.000000 Connectivity: 1 (7 )

		Dipole:           0.0000000000 [D]
		Quadrupole:       0.0000000000       0.0000000000       0.0000000000 [D Angstrom]
		Quadrupole tensor [D Angstrom]
				       0.0000000000       0.0000000000       0.0000000000
				       0.0000000000       0.0000000000       0.0000000000
				       0.0000000000       0.0000000000       0.0000000000

	Starting bead for growth               : 0

	Degrees of freedom                     : 0
	Translational degrees of freedom       : 0
	Rotational degrees of freedom          : 0
	Vibrational degrees of freedom         : 0
	Constraint degrees of freedom          : 0

	Number of atoms                        : 9

	Number of constraint bonds             : 0
	Number of constraint bends             : 0
	Number of constraint inversion bends   : 0
	Number of constraint torsions          : 0
	Number of constraint improper torsions : 0
	Number of constraint improper torsions : 0

	Number of bonds                        : 8
	Number of Urey-Bradleys                : 0
	Number of bends                        : 7
	Number of inversion bends              : 0
	Number of torsions                     : 6
	Number of improper torsions            : 0
	Number of improper torsions            : 0

	Number of bond/bond cross terms        : 0
	Number of bond/bend cross terms        : 0
	Number of bend/bend cross terms        : 0
	Number of stretch/torsion cross terms  : 0
	Number of bend/torsion cross terms     : 0

	Number of charges                      : 0
	Number of bond-dipoles                 : 0

	Number of intra Van der Waals                             : 15
	Number of intra charge-charge Coulomb                     : 0
	Number of intra charge-bonddipole Coulomb                 : 0
	Number of intra bonddipole-bonddipole Coulomb             : 0

	Number of excluded intra charge-charge Coulomb                     : 0
	Number of excluded intra charge-bonddipole Coulomb                 : 0
	Number of excluded intra bonddipole-bonddipole Coulomb             : 0

	Number of cbmc-config moves                               : 0

	Particle Moves:             
		ProbabilityTranslationMove:                  0.000000
			TranslationDirection:      XYZ
		Percentage of random translation moves:            0.000000
		Percentage of rotation moves:                      0.000000
		Percentage of random rotation moves:               0.000000
		Percentage of partial reinsertion moves:           0.000000
		Percentage of reinsertion moves:                   0.000000
		Percentage of reinsertion-in-place moves:          0.000000
		Percentage of reinsertion-in-plane moves:          0.000000
		Percentage of identity-change moves:               0.000000
		Percentage of swap (insert/delete) moves:          0.000000
		Percentage of CF swap lambda moves:                0.000000
		Percentage of CB/CFMC swap lambda moves:           0.000000
		Percentage of Widom insertion moves:               100.000000
		Percentage of CF-Widom insertion moves:            0.000000
		Percentage of Gibbs Widom insertion moves:         0.000000
		Percentage of surface-area moves:                  0.000000
		Percentage of Gibbs particle-transfer moves:       0.000000
		Percentage of Gibbs identity-change moves:         0.000000
		Percentage of CF Gibbs lambda-transfer moves:      0.000000
		Percentage of CB/CFMC Gibbs lambda-transfer moves: 0.000000
		Percentage of exchange frac./int. particle moves:  0.000000
		Percentage of fractional mol. to other box moves:  0.000000
		Percentage of lambda-change moves:                 0.000000
		Percentage of fractional to integer moves:         0.000000

	System Moves:
		Percentage of parallel-tempering moves:            0.000000
		Percentage of hyper-parallel-tempering moves:      0.000000
		Percentage of parallel-mol-fraction moves:         0.000000
			   Component A: 0 B: 1
		Percentage of chiral inversion moves:              0.000000
		Percentage of Hybrid-NVE moves:                    0.000000
		Percentage of Hybrid-NPH moves:                    0.000000
		Percentage of Hybrid-NPHPR moves:                  0.000000
		Percentage of volume-change moves:                 0.000000
		Percentage of box-shape-change moves:              0.000000
		Percentage of Gibbs volume-change moves:           0.000000
		Percentage of framework-change moves:              0.000000
		Percentage of framework-shift moves:               0.000000
		Percentage of reactive MC moves:                   0.000000

	Moves are restricted: No
	No biased sampling used for this component

	Number of Bonds: 8
	--------------------------------------------
	Bond interaction 0: A=0 B=1 Type:HARMONIC_BOND
		HARMONIC_BOND: p_0/k_B=96500.000000 [K/A^2], p_1=1.540000   [A]
	Bond interaction 1: A=1 B=2 Type:HARMONIC_BOND
		HARMONIC_BOND: p_0/k_B=96500.000000 [K/A^2], p_1=1.540000   [A]
	Bond interaction 2: A=2 B=3 Type:HARMONIC_BOND
		HARMONIC_BOND: p_0/k_B=96500.000000 [K/A^2], p_1=1.540000   [A]
	Bond interaction 3: A=3 B=4 Type:HARMONIC_BOND
		HARMONIC_BOND: p_0/k_B=96500.000000 [K/A^2], p_1=1.540000   [A]
	Bond interaction 4: A=4 B=5 Type:HARMONIC_BOND
		HARMONIC_BOND: p_0/k_B=96500.000000 [K/A^2], p_1=1.540000   [A]
	Bond interaction 5: A=5 B=6 Type:HARMONIC_BOND
		HARMONIC_BOND: p_0/k_B=96500.000000 [K/A^2], p_1=1.540000   [A]
	Bond interaction 6: A=6 B=7 Type:HARMONIC_BOND
		HARMONIC_BOND: p_0/k_B=96500.000000 [K/A^2], p_1=1.540000   [A]
	Bond interaction 7: A=7 B=8 Type:HARMONIC_BOND
		HARMONIC_BOND: p_0/k_B=96500.000000 [K/A^2], p_1=1.540000   [A]

	Number of Bends: 7
	--------------------------------------------
	Bend interaction 0: A=0 B=1 C=2 Type:HARMONIC_BEND
		HARMONIC_BEND: p_0/k_B=62500.000000 [K/rad^2], p_1=114.000000 [degrees]
	Bend interaction 1: A=1 B=2 C=3 Type:HARMONIC_BEND
		HARMONIC_BEND: p_0/k_B=62500.000000 [K/rad^2], p_1=114.000000 [degrees]
	Bend interaction 2: A=2 B=3 C=4 Type:HARMONIC_BEND
		HARMONIC_BEND: p_0/k_B=62500.000000 [K/rad^2], p_1=114.000000 [degrees]
	Bend interaction 3: A=3 B=4 C=5 Type:HARMONIC_BEND
		HARMONIC_BEND: p_0/k_B=62500.000000 [K/rad^2], p_1=114.000000 [degrees]
	Bend interaction 4: A=4 B=5 C=6 Type:HARMONIC_BEND
		HARMONIC_BEND: p_0/k_B=62500.000000 [K/rad^2], p_1=114.000000 [degrees]
[...]
	    0.000000000000     0.050253781597    -0.000000000000
	    0.000000000000     0.000000000000     0.074721661810

lengths of cell vectors (inverse box):
  0.02497   0.02513   0.03736
cosines of cell angles (inverse box):
 -0.00000  -0.00000  -0.00000
perpendicular cell widths (inverse):
  0.02497   0.02513   0.03736
volume of the cell: 42656.200983791998 (A^3)

No replicas are used
Framework is simulated as 'rigid'
Number of framework atoms: 2304
Number of framework atoms in the unit cell: 288
Framework Mass: 46144.748974602669 [g/mol]
Framework Density:  1796.342406023652 [kg/m^3]    0.5566867411506 [cm^3/g]
Helium void fraction:    0.00000000
Available pore volume:    0.00000000 [A^3]    0.00000000 [cm^3/g]
Conversion factor from molecule/unit cell -> kmol/m^3: 0.0389284, kmol/m^3 accesible pore volume: inf

Number Of Frameworks (per system): 1
----------------------------------------------------------------------
Framework name: MFI_SI
Citation:
	author name:        'H. van Koningsveld, H. van Bekkum, and J. C. Jansen'
	title:              'On the location and disorder of the tetrapropylammonium (TPA) ion in zeolite ZSM-5 with improved framework accuracy'
	journal abbrev.:    'Acta Cryst.'
	journal volume:     B43
	first page:         127
	last page:          132
	year:               1987
Space group: 62
	Identifier: 292
	short international Hermann-Mauguin symbol: P n m a
	long international Hermann-Mauguin symbol: P 21/n 21/m 21/a
	Hall symbol: -P 2ac 2n
	Number of lattice translations: 1 [ (0,0,0) ]
	acentric/centric: acentric
	chiral: yes
	enantiomorphic: no
	number of operators: 8
		'x,y,z'
		'-x+1/2,-y,z+1/2'
		'-x,y+1/2,-z'
		'x+1/2,-y+1/2,-z+1/2'
		'-x,-y,-z'
		'x+1/2,y,-z+1/2'
		'x,-y+1/2,z'
		'-x+1/2,y+1/2,z+1/2'
Framework is simulated as 'rigid'
Shift: 0.000000 0.000000 0.000000
Number of framework atoms: 2304
Number of asymmetric atoms: 38
Number of free framework atoms: 0
Number of fixed framework atoms: 2304
Number of framework atoms in the unit cell: 288
Framework Mass: 46144.748974602669 [g/mol]
Framework Density:  1796.342406023652 [kg/m^3]
Framework has net charge: 0.000000
         largest charge : 0.000000
         smallest charge: 0.000000

Using FULL Host-guest interaction calculation (for testing purposes)

Current Atom Status
===========================================================================
Number of framework atoms        : 2304
Number of cations molecules      : 0
Number of adsorbate molecules    : 0
Component    0 :    0 molecules
Component    1 :    0 molecules
Component    2 :    0 molecules
Component    3 :    0 molecules
Component    4 :    0 molecules
Pseudo Atoms    0 [    UNIT]:    0 atoms
Pseudo Atoms    1 [      He]:    0 atoms
Pseudo Atoms    2 [   C_co2]:    0 atoms
Pseudo Atoms    3 [   O_co2]:    0 atoms
Pseudo Atoms    4 [    O_o2]:    0 atoms
Pseudo Atoms    5 [   O_com]:    0 atoms
Pseudo Atoms    6 [    N_n2]:    0 atoms
Pseudo Atoms    7 [   N_com]:    0 atoms
Pseudo Atoms    8 [      Ar]:    0 atoms
Pseudo Atoms    9 [     CH4]:    0 atoms
Pseudo Atoms   10 [     CH3]:    0 atoms
Pseudo Atoms   11 [     CH2]:    0 atoms
Pseudo Atoms   12 [      CH]:    0 atoms
Pseudo Atoms   13 [       C]:    0 atoms
Pseudo Atoms   14 [      Si]:  768 atoms
Pseudo Atoms   15 [       O]: 1536 atoms


Current (initial full energy) Energy Status
===========================================================================

Internal energy:
Host stretch energy:                                            0.00000000
Host UreyBradley energy:                                        0.00000000
Host bend energy:                                               0.00000000
Host inversion-bend energy:                                     0.00000000
Host torsion energy:                                            0.00000000
Host improper torsion energy:                                   0.00000000
Host out-of-plane energy:                                       0.00000000
Host stretch/stretch energy:                                    0.00000000
Host bend/bend energy:                                          0.00000000
Host stretch/bend energy:                                       0.00000000
Host stretch/torsion energy:                                    0.00000000
Host bend/torsion energy:                                       0.00000000

Adsorbate stretch energy:                                       0.00000000
Adsorbate UreyBradley energy:                                   0.00000000
Adsorbate bend energy:                                          0.00000000
Adsorbate inversion-bend energy:                                0.00000000
Adsorbate torsion energy:                                       0.00000000
Adsorbate improper torsion energy:                              0.00000000
Adsorbate out-of-plane energy:                                  0.00000000
Adsorbate stretch/stretch energy:                               0.00000000
Adsorbate bend/bend energy:                                     0.00000000
Adsorbate stretch/bend energy:                                  0.00000000
Adsorbate stretch/torsion energy:                               0.00000000
Adsorbate bend/torsion energy:                                  0.00000000
Adsorbate intra VDW energy:                                     0.00000000
Adsorbate intra charge-charge Coulomb energy:                   0.00000000
Adsorbate intra charge-bonddipole Coulomb energy:               0.00000000
Adsorbate intra bonddipole-bonddipole Coulomb energy:           0.00000000

Cation stretch energy:                                          0.00000000
Cation UreyBradley energy:                                      0.00000000
Cation bend energy:                                             0.00000000
Cation inversion-bend energy:                                   0.00000000
Cation torsion energy:                                          0.00000000
Cation improper torsion energy:                                 0.00000000
Cation out-of-plane energy:                                     0.00000000
Cation stretch/stretch energy:                                  0.00000000
Cation bend/bend energy:                                        0.00000000
Cation stretch/bend energy:                                     0.00000000
Cation stretch/torsion energy:                                  0.00000000
Cation bend/torsion energy:                                     0.00000000
Cation intra VDW energy:                                        0.00000000
Cation intra charge-charge Coulomb energy:                      0.00000000
Cation intra charge-bonddipole Coulomb energy:                  0.00000000
Cation intra bonddipole-bonddipole Coulomb energy:              0.00000000

Host/Host energy:                                             0.00000000
	Host/Host VDW energy:                                         0.00000000
	Host/Host Coulomb energy:                                     0.00000000
	Host/Host charge-charge Real energy:                          0.00000000
	Host/Host charge-charge Fourier energy:                       0.00000000
	Host/Host charge-bonddipole Real energy:                      0.00000000
	Host/Host charge-bonddipole Fourier energy:                   0.00000000
	Host/Host bondipole-bonddipole Real energy:                   0.00000000
	Host/Host bondipole-bonddipole Fourier energy:                0.00000000

Host/Adsorbate energy:                                        0.00000000
	Host/Adsorbate VDW energy:                                    0.00000000
	Host/Adsorbate Coulomb energy:                                0.00000000
	Host/Adsorbate charge-charge Real energy:                     0.00000000
	Host/Adsorbate charge-charge Fourier energy:                  0.00000000
	Host/Adsorbate charge-bonddipole Real energy:                 0.00000000
	Host/Adsorbate charge-bonddipole Fourier energy:              0.00000000
	Host/Adsorbate bondipole-bonddipole Real energy:              0.00000000
	Host/Adsorbate bondipole-bonddipole Fourier energy:           0.00000000

Host/Cation energy:                                           0.00000000
	Host/Cation VDW energy:                                       0.00000000
	Host/Cation Coulomb energy:                                   0.00000000
	Host/Cation charge-charge Real energy:                        0.00000000
	Host/Cation charge-charge Fourier energy:                     0.00000000
	Host/Cation charge-bonddipole Real energy:                    0.00000000
	Host/Cation charge-bonddipole Fourier energy:                 0.00000000
	Host/Cation bondipole-bonddipole Real energy:                 0.00000000
	Host/Cation bondipole-bonddipole Fourier energy:              0.00000000

Adsorbate/Adsorbate energy:                                        0.00000000
	Adsorbate/Adsorbate VDW energy:                                    0.00000000
	Adsorbate/Adsorbate Coulomb energy:                                0.00000000
	Adsorbate/Adsorbate charge-charge Real energy:                     0.00000000
	Adsorbate/Adsorbate charge-charge Fourier energy:                  0.00000000
	Adsorbate/Adsorbate charge-bonddipole Real energy:                 0.00000000
	Adsorbate/Adsorbate charge-bonddipole Fourier energy:              0.00000000
	Adsorbate/Adsorbate bondipole-bonddipole Real energy:              0.00000000
	Adsorbate/Adsorbate bondipole-bonddipole Fourier energy:           0.00000000

Adsorbate/Cation energy:                                           0.00000000
	Adsorbate/Cation VDW energy:                                       0.00000000
	Adsorbate/Cation Coulomb energy:                                   0.00000000
	Adsorbate/Cation charge-charge Real energy:                        0.00000000
	Adsorbate/Cation charge-charge Fourier energy:                     0.00000000
	Adsorbate/Cation charge-bonddipole Real energy:                    0.00000000
	Adsorbate/Cation charge-bonddipole Fourier energy:                 0.00000000
	Adsorbate/Cation bondipole-bonddipole Real energy:                 0.00000000
	Adsorbate/Cation bondipole-bonddipole Fourier energy:              0.00000000

Cation/Cation energy:                                           0.00000000
	Cation/Cation VDW energy:                                       0.00000000
	Cation/Cation Coulomb energy:                                   0.00000000
	Cation/Cation charge-charge Real energy:                        0.00000000
	Cation/Cation charge-charge Fourier energy:                     0.00000000
	Cation/Cation charge-bonddipole Real energy:                    0.00000000
	Cation/Cation charge-bonddipole Fourier energy:                 0.00000000
	Cation/Cation bondipole-bonddipole Real energy:                 0.00000000
	Cation/Cation bondipole-bonddipole Fourier energy:              0.00000000

Polarization energy:
	Host polarization energy:                                     0.00000000
	Adsorbate polarization energy:                                0.00000000
	Cation polarization energy:                                   0.00000000
	Host back-polarization energy:                                     0.00000000
	Adsorbate back-polarization energy:                                0.00000000
	Cation back-polarization energy:                                   0.00000000

Tail-correction energy:                                       0.00000000

Distance constraints energy:                                  0.00000000
Angle constraints energy:                                     0.00000000
Dihedral constraints energy:                                  0.00000000
Inversion-bend constraints energy:                            0.00000000
Out-of-plane distance constraints energy:                     0.00000000
Exclusion constraints energy:                                 0.00000000

===================================================================
Total energy:     0.000000000000
	Total Van der Waals: 0.000000
	Total Coulomb: 0.000000

	Total Polarization: 0.000000







+++++++++++++++++++++++++++++++++++++++++++++++++++++++++++++++++++++++++
Starting simulation
+++++++++++++++++++++++++++++++++++++++++++++++++++++++++++++++++++++++++

Average Properties at Current cycle: 0 out of 10000
========================================================================================

Framework surface area:       0.0000000000 [m^2/g]        0.0000000000 [m^2/cm^3]       0.0000000000 [A^2]
	Framework 0 individual surface area:       0.0000000000 [m^2/g]        0.0000000000 [m^2/cm^3]       0.0000000000 [A^2]
	Cation surface area:                       0.0000000000 [m^2/g]        0.0000000000 [m^2/cm^3]       0.0000000000 [A^2]
Compressibility:               -nan [-]
Henry coefficients
	Component 0: 0 [mol/kg/Pa] (Rosenbluth factor new: 0 [-])
	Component 1: 0 [mol/kg/Pa] (Rosenbluth factor new: 0 [-])
	Component 2: 0 [mol/kg/Pa] (Rosenbluth factor new: 0 [-])
	Component 3: 0 [mol/kg/Pa] (Rosenbluth factor new: 0 [-])
	Component 4: 0 [mol/kg/Pa] (Rosenbluth factor new: 0 [-])
Energy <U_gh>_1-<U_h>_0 from Widom
	Component 0:       0.0000000000 [K]  (      0.0000000000 [kJ/mol])
Component [pentane] average Widom:       0.0000000000, average chemical potential:                inf [K]
		(average excess chemical potential:                inf [K], ideal-gas contribution:                inf [K])
	Component 1:       0.0000000000 [K]  (      0.0000000000 [kJ/mol])
Component [hexane] average Widom:       0.0000000000, average chemical potential:                inf [K]
		(average excess chemical potential:                inf [K], ideal-gas contribution:                inf [K])
	Component 2:       0.0000000000 [K]  (      0.0000000000 [kJ/mol])
Component [heptane] average Widom:       0.0000000000, average chemical potential:                inf [K]
		(average excess chemical potential:                inf [K], ideal-gas contribution:                inf [K])
	Component 3:       0.0000000000 [K]  (      0.0000000000 [kJ/mol])
Component [octane] average Widom:       0.0000000000, average chemical potential:                inf [K]
		(average excess chemical potential:                inf [K], ideal-gas contribution:                inf [K])
	Component 4:       0.0000000000 [K]  (      0.0000000000 [kJ/mol])
Component [nonane] average Widom:       0.0000000000, average chemical potential:                inf [K]
		(average excess chemical potential:                inf [K], ideal-gas contribution:                inf [K])


Current cycle: 0 out of 10000
========================================================================================================

Net charge: 0 (F: 0, A: 0, C: 0)
Current Box:  40.04400   0.00000   0.00000 [A]   Average Box:  40.04400   0.00000   0.00000 [A]
               0.00000  39.79800   0.00000 [A]                  0.00000  39.79800   0.00000 [A]
               0.00000   0.00000  26.76600 [A]                  0.00000   0.00000  26.76600 [A]
Box-lengths:   40.04400  39.79800  26.76600 [A] Average:  40.04400  39.79800  26.76600 [A]
Box-angles:   90.00000  90.00000  90.00000 [degrees] Average:  90.00000  90.00000  90.00000 [degrees]
Volume: 42656.20098 [A^3] Average Volume: 42656.20098 [A^3]

Loadings per component:
----------------------------------------------------------------------------------------------------------------------------------------------------
Component 0 (pentane), current number of integer/fractional/reaction molecules: 0/0/0 (avg.   0.00000), density:   0.00000 (avg.   0.00000) [kg/m^3]
	absolute adsorption:   0.00000 (avg.   0.00000) [mol/uc],   0.0000000000 (avg.   0.0000000000) [mol/kg],   0.0000000000 (avg.   0.0000000000) [mg/g]
	                       0.0000000000 (avg.   0.0000000000) [cm^3 STP/g],    0.0000000000 (avg.   0.0000000000) [cm^3 STP/cm^3]
	excess adsorption:     0.0000000000 (avg.   0.0000000000) [mol/uc],   0.0000000000 (avg.   0.0000000000) [mol/kg],   0.0000000000 (avg.   0.0000000000) [mg/g]
	                       0.0000000000 (avg.   0.0000000000) [cm^3 STP/g],    0.0000000000 (avg.   0.0000000000) [cm^3 STP/cm^3]
Component 1 (hexane), current number of integer/fractional/reaction molecules: 0/0/0 (avg.   0.00000), density:   0.00000 (avg.   0.00000) [kg/m^3]
	absolute adsorption:   0.00000 (avg.   0.00000) [mol/uc],   0.0000000000 (avg.   0.0000000000) [mol/kg],   0.0000000000 (avg.   0.0000000000) [mg/g]
	                       0.0000000000 (avg.   0.0000000000) [cm^3 STP/g],    0.0000000000 (avg.   0.0000000000) [cm^3 STP/cm^3]
	excess adsorption:     0.0000000000 (avg.   0.0000000000) [mol/uc],   0.0000000000 (avg.   0.0000000000) [mol/kg],   0.0000000000 (avg.   0.0000000000) [mg/g]
	                       0.0000000000 (avg.   0.0000000000) [cm^3 STP/g],    0.0000000000 (avg.   0.0000000000) [cm^3 STP/cm^3]
Component 2 (heptane), current number of integer/fractional/reaction molecules: 0/0/0 (avg.   0.00000), density:   0.00000 (avg.   0.00000) [kg/m^3]
	absolute adsorption:   0.00000 (avg.   0.00000) [mol/uc],   0.0000000000 (avg.   0.0000000000) [mol/kg],   0.0000000000 (avg.   0.0000000000) [mg/g]
	                       0.0000000000 (avg.   0.0000000000) [cm^3 STP/g],    0.0000000000 (avg.   0.0000000000) [cm^3 STP/cm^3]
	excess adsorption:     0.0000000000 (avg.   0.0000000000) [mol/uc],   0.0000000000 (avg.   0.0000000000) [mol/kg],   0.0000000000 (avg.   0.0000000000) [mg/g]
	                       0.0000000000 (avg.   0.0000000000) [cm^3 STP/g],    0.0000000000 (avg.   0.0000000000) [cm^3 STP/cm^3]
Component 3 (octane), current number of integer/fractional/reaction molecules: 0/0/0 (avg.   0.00000), density:   0.00000 (avg.   0.00000) [kg/m^3]
	absolute adsorption:   0.00000 (avg.   0.00000) [mol/uc],   0.0000000000 (avg.   0.0000000000) [mol/kg],   0.0000000000 (avg.   0.0000000000) [mg/g]
	                       0.0000000000 (avg.   0.0000000000) [cm^3 STP/g],    0.0000000000 (avg.   0.0000000000) [cm^3 STP/cm^3]
	excess adsorption:     0.0000000000 (avg.   0.0000000000) [mol/uc],   0.0000000000 (avg.   0.0000000000) [mol/kg],   0.0000000000 (avg.   0.0000000000) [mg/g]
	                       0.0000000000 (avg.   0.0000000000) [cm^3 STP/g],    0.0000000000 (avg.   0.0000000000) [cm^3 STP/cm^3]
Component 4 (nonane), current number of integer/fractional/reaction molecules: 0/0/0 (avg.   0.00000), density:   0.00000 (avg.   0.00000) [kg/m^3]
	absolute adsorption:   0.00000 (avg.   0.00000) [mol/uc],   0.0000000000 (avg.   0.0000000000) [mol/kg],   0.0000000000 (avg.   0.0000000000) [mg/g]
	                       0.0000000000 (avg.   0.0000000000) [cm^3 STP/g],    0.0000000000 (avg.   0.0000000000) [cm^3 STP/cm^3]
	excess adsorption:     0.0000000000 (avg.   0.0000000000) [mol/uc],   0.0000000000 (avg.   0.0000000000) [mol/kg],   0.0000000000 (avg.   0.0000000000) [mg/g]
	                       0.0000000000 (avg.   0.0000000000) [cm^3 STP/g],    0.0000000000 (avg.   0.0000000000) [cm^3 STP/cm^3]
----------------------------------------------------------------------------------------------------------------------------------------------------
Degrees of freedom: 0 0 0 0
Number of Framework-atoms:   2304
Number of Adsorbates:           0 (0 integer, 0 fractional, 0 reaction)
Number of Cations:              0 (0 integer, 0 fractional, 0 reaction)

Current total potential energy:                 0.0000000000 [K]  (avg.           0.0000000000)
	Current Host-Host energy:                     0.0000000000 [K]  (avg.           0.0000000000)
	Current Host-Adsorbate energy:                0.0000000000 [K]  (avg.           0.0000000000)
	Current Host-Cation energy:                   0.0000000000 [K]  (avg.           0.0000000000)
	Current Adsorbate-Adsorbate energy:           0.0000000000 [K]  (avg.           0.0000000000)
	Current Cation-Cation energy:                 0.0000000000 [K]  (avg.           0.0000000000)
	Current Adsorbate-Cation energy:              0.0000000000 [K]  (avg.           0.0000000000)



